# vtk DataFile Version 3.0
Cu single-crystal phase-field data
ASCII
DATASET STRUCTURED_POINTS
DIMENSIONS 32 32 16
ORIGIN 0 0 0
SPACING 5.000000e-07 5.000000e-07 5.000000e-07
POINT_DATA 16384
SCALARS crack float 1
LOOKUP_TABLE default
9.441072e-05
9.441079e-05
9.438632e-05
9.183503e-05
9.183066e-05
9.183105e-05
9.183485e-05
9.183280e-05
9.183101e-05
9.183522e-05
9.441079e-05
9.441070e-05
9.183230e-05
9.183097e-05
9.441078e-05
9.183070e-05
9.175640e-05
9.183081e-05
9.183894e-05
9.183702e-05
9.441078e-05
9.438711e-05
9.441071e-05
9.441076e-05
9.438612e-05
9.438621e-05
9.441075e-05
9.438586e-05
9.183096e-05
9.182878e-05
9.183186e-05
9.183426e-05
9.441072e-05
9.430177e-05
8.666706e-05
8.916968e-05
8.916942e-05
8.924517e-05
8.909651e-05
8.924821e-05
9.167931e-05
9.408485e-05
9.145321e-05
8.648632e-05
9.145209e-05
9.438660e-05
9.441065e-05
9.438755e-05
9.168168e-05
9.183811e-05
8.925595e-05
9.183552e-05
8.925065e-05
9.182895e-05
9.438684e-05
9.423512e-05
8.666532e-05
9.433110e-05
9.433512e-05
9.431012e-05
9.175581e-05
9.431118e-05
9.441061e-05
9.183557e-05
9.182858e-05
9.182531e-05
8.909472e-05
8.666721e-05
8.914595e-05
8.909520e-05
8.407941e-05
9.168114e-05
9.183075e-05
9.441080e-05
9.438647e-05
9.183066e-05
9.183044e-05
9.181367e-05
8.663241e-05
8.666393e-05
9.172773e-05
9.182885e-05
9.183223e-05
9.441069e-05
8.917278e-05
9.183339e-05
9.182891e-05
9.175336e-05
9.180271e-05
9.433505e-05
9.425864e-05
9.175723e-05
9.182678e-05
9.440743e-05
9.438666e-05
9.441084e-05
9.183035e-05
9.182992e-05
9.181808e-05
9.438749e-05
9.441070e-05
9.438697e-05
9.182979e-05
9.182919e-05
9.183593e-05
9.437977e-05
9.438590e-05
9.183417e-05
9.180472e-05
9.182678e-05
9.175612e-05
9.431127e-05
9.440742e-05
9.430827e-05
9.176320e-05
9.423315e-05
8.917017e-05
9.175448e-05
9.182938e-05
8.917130e-05
9.438716e-05
9.441070e-05
9.441069e-05
9.438346e-05
9.182744e-05
9.441059e-05
9.182923e-05
9.441077e-05
9.182911e-05
9.182965e-05
9.183051e-05
9.431310e-05
9.430487e-05
9.182851e-05
9.441052e-05
9.183192e-05
9.438604e-05
9.425617e-05
9.441067e-05
9.183054e-05
9.441055e-05
9.441005e-05
9.183336e-05
9.183340e-05
9.430793e-05
9.441063e-05
9.430996e-05
8.924639e-05
9.431028e-05
9.182878e-05
9.182990e-05
9.175487e-05
9.183219e-05
9.438711e-05
9.183089e-05
9.438615e-05
9.438510e-05
9.431077e-05
9.182842e-05
9.438755e-05
9.183254e-05
9.183749e-05
9.438754e-05
9.441070e-05
9.433485e-05
8.924636e-05
9.438193e-05
9.183168e-05
9.182969e-05
9.430783e-05
9.438335e-05
9.175733e-05
9.441002e-05
9.441066e-05
9.431213e-05
9.183476e-05
9.183300e-05
9.183164e-05
9.175124e-05
9.423416e-05
9.160204e-05
9.182618e-05
9.182992e-05
9.183068e-05
9.183246e-05
9.183257e-05
9.180284e-05
9.441066e-05
9.438540e-05
9.175575e-05
9.182937e-05
9.430942e-05
9.182927e-05
9.175799e-05
9.183034e-05
9.438876e-05
9.167721e-05
9.172777e-05
9.182769e-05
9.438562e-05
9.183169e-05
9.183093e-05
9.441078e-05
9.183416e-05
9.182829e-05
9.438362e-05
9.441083e-05
9.160983e-05
8.644069e-05
9.144956e-05
9.149973e-05
9.160062e-05
8.651354e-05
9.167099e-05
9.182786e-05
9.441078e-05
9.181561e-05
9.174775e-05
9.182731e-05
9.430940e-05
9.175749e-05
9.182994e-05
9.438683e-05
9.441081e-05
9.183100e-05
9.182993e-05
9.182820e-05
9.182929e-05
9.175354e-05
9.423611e-05
9.418371e-05
9.418364e-05
9.168080e-05
9.145431e-05
9.168400e-05
9.441083e-05
9.183070e-05
9.183548e-05
9.183018e-05
8.924431e-05
9.431196e-05
9.172446e-05
9.441061e-05
9.172792e-05
8.917366e-05
8.408664e-05
9.168065e-05
9.441082e-05
9.182895e-05
9.438718e-05
9.182977e-05
9.175395e-05
9.167845e-05
8.924797e-05
8.924512e-05
9.438707e-05
9.182978e-05
9.183318e-05
9.183131e-05
9.183236e-05
9.182490e-05
9.176012e-05
9.438499e-05
9.182564e-05
9.183060e-05
9.441078e-05
9.183247e-05
9.182893e-05
9.441077e-05
9.183075e-05
9.441060e-05
9.441063e-05
9.441054e-05
9.431182e-05
9.438555e-05
9.183329e-05
9.183183e-05
9.183089e-05
9.175389e-05
9.182908e-05
9.441057e-05
9.441060e-05
9.438719e-05
9.183205e-05
9.183016e-05
9.183214e-05
9.182977e-05
9.438653e-05
9.182855e-05
9.183013e-05
9.182825e-05
9.182982e-05
9.433490e-05
9.175346e-05
9.441064e-05
9.183136e-05
9.438584e-05
9.183242e-05
9.441063e-05
9.183124e-05
9.175103e-05
9.183118e-05
9.182866e-05
9.183033e-05
9.438669e-05
9.438886e-05
9.182805e-05
9.438705e-05
9.175593e-05
9.183078e-05
9.180430e-05
9.182659e-05
9.183264e-05
9.438802e-05
9.438229e-05
9.175749e-05
8.924958e-05
9.175396e-05
9.438621e-05
9.441080e-05
9.183059e-05
9.182931e-05
9.183091e-05
9.183192e-05
9.182692e-05
9.182796e-05
9.183081e-05
9.438624e-05
9.441066e-05
9.438649e-05
9.183225e-05
9.438629e-05
9.175504e-05
9.183059e-05
9.183284e-05
9.183400e-05
9.438810e-05
9.441056e-05
9.183158e-05
9.441051e-05
9.438464e-05
9.438788e-05
9.441062e-05
9.431092e-05
9.183102e-05
9.438631e-05
9.441069e-05
8.922074e-05
8.917100e-05
8.924605e-05
9.175476e-05
9.431045e-05
9.183375e-05
8.924854e-05
9.183062e-05
9.438708e-05
9.183124e-05
9.167970e-05
9.167162e-05
9.183302e-05
9.438559e-05
9.183199e-05
9.438614e-05
9.433501e-05
9.430994e-05
9.183390e-05
9.183345e-05
9.182788e-05
9.183080e-05
9.438739e-05
9.183420e-05
9.438449e-05
9.183205e-05
9.182895e-05
9.423599e-05
9.182581e-05
9.182897e-05
9.182942e-05
9.438342e-05
8.917255e-05
8.916105e-05
9.174879e-05
9.441075e-05
9.175720e-05
9.183411e-05
9.182642e-05
9.438592e-05
9.441060e-05
9.441057e-05
9.183263e-05
9.175116e-05
9.441087e-05
9.431081e-05
9.175117e-05
9.183065e-05
9.438684e-05
9.183057e-05
9.183894e-05
9.438553e-05
9.182971e-05
8.924635e-05
9.182998e-05
9.183521e-05
8.924508e-05
9.438835e-05
9.183469e-05
9.441069e-05
9.182909e-05
9.183126e-05
8.924694e-05
8.917331e-05
8.651317e-05
9.150155e-05
9.175768e-05
9.183082e-05
9.182987e-05
9.182986e-05
9.175481e-05
9.167981e-05
9.438753e-05
9.182815e-05
9.175468e-05
9.433503e-05
9.441070e-05
9.175207e-05
9.172770e-05
8.666139e-05
9.160422e-05
9.183436e-05
9.440991e-05
9.441060e-05
9.438619e-05
9.183166e-05
8.924922e-05
9.176032e-05
9.438797e-05
9.441058e-05
9.183442e-05
9.441065e-05
9.438685e-05
9.182947e-05
8.924834e-05
8.666606e-05
8.656252e-05
9.152478e-05
9.431189e-05
9.441072e-05
9.183151e-05
9.182938e-05
9.167103e-05
8.408283e-05
8.666423e-05
9.182964e-05
8.917023e-05
9.167244e-05
9.438678e-05
8.924685e-05
8.924781e-05
9.433496e-05
8.909543e-05
9.438488e-05
9.441060e-05
9.440998e-05
9.183203e-05
9.182707e-05
9.182599e-05
9.183114e-05
9.182452e-05
9.431139e-05
9.175555e-05
9.438620e-05
8.924699e-05
9.175347e-05
9.182748e-05
9.172870e-05
8.924465e-05
9.150099e-05
9.175173e-05
9.182988e-05
9.183203e-05
9.182970e-05
8.150375e-05
8.408016e-05
8.408284e-05
8.659239e-05
8.666545e-05
8.901900e-05
9.438714e-05
8.909498e-05
9.423574e-05
9.441074e-05
9.182875e-05
9.183212e-05
9.441069e-05
9.183202e-05
9.182806e-05
9.183064e-05
9.183394e-05
9.438679e-05
9.183096e-05
9.441074e-05
9.182988e-05
9.183033e-05
9.183283e-05
8.924824e-05
9.182684e-05
9.441067e-05
9.172844e-05
8.407854e-05
9.166968e-05
9.183149e-05
9.182952e-05
9.438747e-05
9.183519e-05
9.183642e-05
8.666382e-05
8.922021e-05
8.917473e-05
8.924625e-05
9.183105e-05
9.441082e-05
9.182667e-05
9.183015e-05
9.183096e-05
9.183265e-05
9.175568e-05
8.924625e-05
9.175458e-05
9.183607e-05
9.440999e-05
9.441056e-05
9.438694e-05
8.666367e-05
9.152877e-05
9.441063e-05
9.182957e-05
9.438636e-05
9.441058e-05
9.440998e-05
9.183277e-05
8.924865e-05
9.182982e-05
9.160292e-05
9.183566e-05
9.441102e-05
9.438759e-05
9.183060e-05
9.431228e-05
8.924813e-05
9.180479e-05
9.183151e-05
9.183085e-05
9.182976e-05
9.183075e-05
9.182480e-05
9.183373e-05
9.183254e-05
8.917243e-05
8.924334e-05
9.433495e-05
9.440999e-05
9.441065e-05
9.441000e-05
8.408044e-05
8.149884e-05
9.160363e-05
9.183048e-05
9.183010e-05
8.924807e-05
9.180475e-05
9.182950e-05
9.183563e-05
9.183025e-05
9.438836e-05
8.666418e-05
9.183872e-05
9.438680e-05
9.182830e-05
9.441058e-05
9.441071e-05
9.431127e-05
9.183165e-05
9.438804e-05
9.182969e-05
9.183036e-05
8.924738e-05
9.168111e-05
9.441078e-05
9.183231e-05
8.658958e-05
9.183266e-05
9.441067e-05
9.441071e-05
9.441009e-05
8.142247e-05
8.142159e-05
8.149866e-05
9.152817e-05
9.182950e-05
9.183327e-05
9.183255e-05
9.183376e-05
9.441056e-05
9.183262e-05
9.438684e-05
9.441068e-05
9.172890e-05
9.182946e-05
9.183044e-05
9.182903e-05
9.431084e-05
9.182763e-05
9.431131e-05
9.438706e-05
9.441059e-05
9.438710e-05
9.182877e-05
9.183127e-05
9.182511e-05
9.183264e-05
9.175679e-05
9.176248e-05
8.909071e-05
9.182992e-05
9.180371e-05
9.175198e-05
8.149928e-05
8.142375e-05
8.142192e-05
7.891434e-05
9.181352e-05
9.182927e-05
9.183458e-05
9.183241e-05
9.182952e-05
9.183217e-05
9.183148e-05
9.438740e-05
9.167759e-05
9.182896e-05
9.183294e-05
9.183026e-05
9.183602e-05
9.180374e-05
9.438722e-05
9.183025e-05
9.441061e-05
9.183834e-05
9.441064e-05
9.182948e-05
9.183368e-05
9.441072e-05
9.183190e-05
9.183003e-05
9.432869e-05
9.175406e-05
9.175362e-05
8.666821e-05
8.142487e-05
7.891610e-05
8.142415e-05
7.891753e-05
8.915991e-05
9.175519e-05
9.183085e-05
9.183020e-05
9.182986e-05
8.924706e-05
8.408470e-05
8.909508e-05
8.924647e-05
9.183178e-05
9.183052e-05
9.183153e-05
8.924809e-05
8.922125e-05
9.441073e-05
9.438682e-05
9.183204e-05
9.183113e-05
9.182816e-05
9.175829e-05
9.183546e-05
9.182843e-05
9.182552e-05
9.438615e-05
9.437545e-05
8.650838e-05
8.924727e-05
7.891651e-05
8.663830e-05
8.651455e-05
9.152856e-05
8.923939e-05
9.182218e-05
9.183067e-05
9.183208e-05
9.183388e-05
9.183237e-05
8.924734e-05
8.400945e-05
8.651478e-05
9.182790e-05
9.441081e-05
9.183116e-05
9.175590e-05
9.174993e-05
8.925003e-05
9.438771e-05
9.183499e-05
9.183390e-05
9.182994e-05
9.441064e-05
9.183077e-05
9.175498e-05
9.183525e-05
9.438812e-05
9.441077e-05
9.425943e-05
8.906613e-05
8.142588e-05
8.147103e-05
9.174886e-05
9.433132e-05
9.175511e-05
8.917145e-05
9.183019e-05
9.183017e-05
9.182989e-05
9.183029e-05
9.183109e-05
9.182915e-05
8.400402e-05
8.400627e-05
8.666273e-05
9.183361e-05
9.182954e-05
9.182941e-05
9.441067e-05
9.175614e-05
9.182988e-05
9.183169e-05
9.183338e-05
8.924703e-05
9.182917e-05
8.924698e-05
9.182822e-05
9.183217e-05
9.182948e-05
9.438654e-05
9.430909e-05
8.658518e-05
9.179809e-05
8.924604e-05
9.440687e-05
9.440760e-05
9.431226e-05
9.175317e-05
9.183249e-05
9.441059e-05
9.183177e-05
9.183159e-05
9.182950e-05
9.431117e-05
8.916901e-05
8.924234e-05
9.431088e-05
9.183040e-05
9.183057e-05
9.182941e-05
9.182586e-05
8.917417e-05
9.183087e-05
9.182915e-05
9.183049e-05
9.182877e-05
9.182925e-05
9.182862e-05
9.183112e-05
9.183408e-05
9.176112e-05
9.183163e-05
9.182684e-05
9.438215e-05
9.440750e-05
9.438224e-05
9.438364e-05
9.438658e-05
9.183539e-05
9.183008e-05
9.438660e-05
9.441056e-05
9.438559e-05
9.182954e-05
9.438641e-05
9.441060e-05
9.430146e-05
9.438451e-05
9.441068e-05
9.441077e-05
9.175570e-05
9.182715e-05
9.183024e-05
9.183031e-05
9.182893e-05
9.183052e-05
9.182884e-05
9.441057e-05
9.183165e-05
9.183041e-05
9.183033e-05
9.441059e-05
9.182970e-05
9.183576e-05
9.183205e-05
9.438309e-05
9.431011e-05
9.430819e-05
9.167877e-05
9.180373e-05
9.183147e-05
9.175512e-05
9.183038e-05
9.438624e-05
9.183202e-05
9.441057e-05
9.438756e-05
9.175749e-05
9.182837e-05
9.183305e-05
9.438491e-05
9.441083e-05
9.183081e-05
9.182962e-05
9.441055e-05
9.183011e-05
9.182911e-05
9.182972e-05
9.182922e-05
9.183088e-05
9.183244e-05
9.183359e-05
9.183095e-05
9.183010e-05
9.183209e-05
9.183008e-05
9.438678e-05
9.441078e-05
9.180318e-05
9.168204e-05
9.431252e-05
9.183063e-05
9.183138e-05
9.423551e-05
9.182703e-05
9.183157e-05
9.183489e-05
9.438483e-05
9.440750e-05
9.441014e-05
9.438594e-05
9.441056e-05
9.441064e-05
9.441063e-05
9.423547e-05
9.182829e-05
9.183298e-05
9.183062e-05
9.183416e-05
9.438701e-05
9.183158e-05
9.182911e-05
9.182990e-05
9.182999e-05
9.183119e-05
9.183124e-05
9.183352e-05
9.182644e-05
9.175316e-05
9.438288e-05
9.441077e-05
9.182948e-05
9.438624e-05
9.182813e-05
9.438713e-05
9.441067e-05
9.437427e-05
9.438728e-05
9.183188e-05
9.174384e-05
9.441000e-05
9.441056e-05
9.438801e-05
9.182911e-05
9.183048e-05
9.438590e-05
9.441069e-05
9.438752e-05
9.183425e-05
9.175290e-05
9.180386e-05
9.441056e-05
9.438597e-05
9.182998e-05
9.182978e-05
9.182989e-05
9.182920e-05
9.182773e-05
9.182879e-05
9.182761e-05
9.175372e-05
9.183140e-05
9.183057e-05
9.438554e-05
9.441062e-05
9.438702e-05
9.183066e-05
9.438519e-05
9.438694e-05
9.440752e-05
9.438680e-05
9.183160e-05
9.183259e-05
9.438831e-05
9.431175e-05
9.438199e-05
9.441054e-05
9.441070e-05
9.438727e-05
9.183167e-05
9.182931e-05
9.182846e-05
9.182624e-05
9.438554e-05
9.183112e-05
9.182821e-05
9.183203e-05
9.183006e-05
9.438291e-05
9.182766e-05
9.440755e-05
9.441067e-05
9.183035e-05
9.166993e-05
9.182431e-05
9.182874e-05
9.441064e-05
9.183003e-05
9.175722e-05
9.438537e-05
9.183704e-05
9.423565e-05
8.901950e-05
9.183075e-05
9.183442e-05
9.431260e-05
9.182747e-05
9.438662e-05
9.438689e-05
9.183244e-05
9.183239e-05
9.167749e-05
9.175511e-05
9.182764e-05
8.924871e-05
9.182754e-05
9.183441e-05
9.183022e-05
9.441052e-05
9.183723e-05
9.441068e-05
9.433439e-05
9.440746e-05
9.431057e-05
9.183166e-05
9.183316e-05
9.438412e-05
9.183007e-05
9.183113e-05
9.182895e-05
9.172629e-05
9.440749e-05
9.180231e-05
9.167609e-05
9.182359e-05
9.441076e-05
9.183014e-05
9.182954e-05
9.430946e-05
9.175526e-05
9.183468e-05
9.183533e-05
9.183687e-05
9.183034e-05
9.183201e-05
9.175527e-05
9.183074e-05
9.183169e-05
9.182999e-05
9.182987e-05
9.183088e-05
9.183168e-05
9.183221e-05
9.438721e-05
9.441078e-05
9.438752e-05
9.183225e-05
9.438693e-05
9.441077e-05
9.180423e-05
9.183071e-05
9.183005e-05
9.183180e-05
9.441076e-05
9.183632e-05
9.183668e-05
9.183238e-05
9.183126e-05
9.183069e-05
9.183306e-05
9.183852e-05
9.183249e-05
9.183287e-05
9.183108e-05
9.441070e-05
9.408361e-05
8.917252e-05
8.924836e-05
8.658900e-05
8.408202e-05
8.408272e-05
8.924625e-05
9.167918e-05
9.182800e-05
9.440756e-05
9.441068e-05
9.438439e-05
9.438830e-05
9.441059e-05
9.438833e-05
9.182584e-05
9.183478e-05
9.183741e-05
9.423426e-05
9.433500e-05
9.431030e-05
9.438774e-05
9.172829e-05
9.175357e-05
9.183356e-05
9.438572e-05
9.183057e-05
9.183153e-05
9.182996e-05
9.441059e-05
9.183486e-05
9.182778e-05
9.437529e-05
8.901748e-05
8.392880e-05
8.658195e-05
8.650993e-05
8.665933e-05
8.643886e-05
8.909002e-05
9.425497e-05
9.408442e-05
9.403159e-05
9.181655e-05
9.183103e-05
9.439422e-05
9.182799e-05
9.160170e-05
7.891795e-05
7.891592e-05
8.655485e-05
8.663053e-05
8.405154e-05
7.891469e-05
8.400241e-05
8.400144e-05
8.400320e-05
8.147131e-05
8.142522e-05
8.142341e-05
8.147149e-05
7.891596e-05
9.441074e-05
9.438615e-05
8.650908e-05
8.909320e-05
8.400139e-05
8.665542e-05
8.665462e-05
8.665410e-05
8.142334e-05
9.400845e-05
8.400256e-05
8.149552e-05
7.891536e-05
8.142306e-05
9.174221e-05
9.422574e-05
9.159826e-05
8.400348e-05
8.142592e-05
8.146816e-05
7.891545e-05
8.655861e-05
8.149547e-05
8.142325e-05
8.393079e-05
8.142226e-05
8.648634e-05
8.648603e-05
8.142120e-05
8.142196e-05
8.397843e-05
8.149495e-05
9.441079e-05
9.182967e-05
8.142244e-05
9.181715e-05
8.909119e-05
8.398084e-05
8.643788e-05
8.899443e-05
8.392979e-05
9.422495e-05
9.415296e-05
7.891510e-05
8.142282e-05
8.405222e-05
8.142089e-05
8.643733e-05
8.400111e-05
8.655772e-05
8.405053e-05
8.142802e-05
8.392937e-05
8.392899e-05
8.142182e-05
8.142099e-05
8.392942e-05
8.393048e-05
8.400243e-05
7.891540e-05
8.147044e-05
8.404927e-05
8.142220e-05
7.891451e-05
9.441028e-05
9.182949e-05
7.891584e-05
8.149547e-05
9.145079e-05
9.174795e-05
8.921771e-05
7.891350e-05
8.147322e-05
9.145265e-05
9.423196e-05
8.142377e-05
8.142148e-05
8.142254e-05
8.142262e-05
8.142225e-05
8.142392e-05
8.405179e-05
7.891404e-05
8.142423e-05
8.397792e-05
8.397862e-05
7.891546e-05
7.891519e-05
8.142218e-05
8.142237e-05
8.392826e-05
8.655798e-05
8.149430e-05
8.142311e-05
8.405410e-05
8.142155e-05
9.182955e-05
9.183097e-05
9.157396e-05
9.159754e-05
8.916188e-05
8.142214e-05
8.921502e-05
8.914332e-05
7.891337e-05
8.643771e-05
9.182237e-05
9.408154e-05
9.152408e-05
9.152352e-05
9.408248e-05
9.400923e-05
8.400151e-05
7.891545e-05
8.147105e-05
8.142286e-05
8.393359e-05
8.650896e-05
8.142328e-05
8.142205e-05
8.147231e-05
8.142161e-05
9.152319e-05
9.400866e-05
8.405064e-05
8.149358e-05
9.152473e-05
9.152485e-05
9.182848e-05
9.175630e-05
9.152347e-05
8.894349e-05
8.658393e-05
8.914011e-05
8.392818e-05
9.164755e-05
9.408176e-05
8.392830e-05
9.415471e-05
8.909108e-05
9.432156e-05
9.422481e-05
9.415353e-05
8.916162e-05
9.437365e-05
9.167178e-05
9.159647e-05
9.437235e-05
8.908908e-05
9.171952e-05
9.166783e-05
8.906663e-05
9.400971e-05
9.437825e-05
9.159673e-05
9.166973e-05
8.407789e-05
9.415519e-05
9.429852e-05
8.643627e-05
9.438682e-05
9.182986e-05
8.142189e-05
8.147152e-05
8.149380e-05
8.393011e-05
8.923306e-05
9.432460e-05
9.437930e-05
9.437708e-05
9.437104e-05
9.440297e-05
8.923908e-05
8.901714e-05
8.392972e-05
8.643747e-05
9.172244e-05
8.643568e-05
9.167030e-05
9.422488e-05
9.416089e-05
9.166824e-05
9.422772e-05
9.430922e-05
9.415425e-05
9.403167e-05
8.643590e-05
8.665480e-05
9.174514e-05
9.174451e-05
8.648828e-05
8.392937e-05
9.183037e-05
9.183170e-05
8.398144e-05
8.142163e-05
8.407389e-05
9.171929e-05
8.901751e-05
8.663308e-05
8.655860e-05
8.899420e-05
7.891505e-05
8.908953e-05
9.439738e-05
9.408035e-05
8.142521e-05
8.648729e-05
8.913868e-05
8.397816e-05
8.665818e-05
8.392862e-05
8.392824e-05
8.392907e-05
8.643653e-05
8.650891e-05
8.149501e-05
7.891482e-05
8.149506e-05
8.142241e-05
8.142468e-05
8.643551e-05
8.392837e-05
8.902016e-05
9.168125e-05
9.175332e-05
8.393063e-05
8.392914e-05
8.913906e-05
8.392919e-05
8.400671e-05
8.149669e-05
8.147303e-05
7.891504e-05
8.149496e-05
7.891503e-05
9.422650e-05
9.400921e-05
8.142163e-05
8.397801e-05
8.663615e-05
8.651096e-05
8.407715e-05
8.142453e-05
8.149378e-05
8.400154e-05
8.663177e-05
8.658331e-05
8.650865e-05
8.398096e-05
8.149569e-05
8.909365e-05
9.167113e-05
8.901921e-05
9.159830e-05
9.152277e-05
9.431130e-05
9.183163e-05
7.891464e-05
8.149684e-05
8.407443e-05
8.913867e-05
8.407785e-05
8.663192e-05
8.142537e-05
8.146927e-05
8.142214e-05
9.400845e-05
9.181738e-05
9.152533e-05
7.891549e-05
7.891649e-05
8.397900e-05
8.393080e-05
8.147205e-05
7.891632e-05
8.147084e-05
8.400188e-05
8.407423e-05
8.921210e-05
8.400204e-05
8.142230e-05
8.400360e-05
9.164792e-05
9.429646e-05
8.908819e-05
8.658103e-05
8.405167e-05
9.175715e-05
9.182493e-05
8.658369e-05
8.142219e-05
8.149589e-05
8.663115e-05
8.916960e-05
9.159554e-05
8.397949e-05
7.891542e-05
9.159721e-05
9.152361e-05
9.429661e-05
8.909153e-05
8.142240e-05
7.891499e-05
7.891498e-05
8.142182e-05
7.891539e-05
7.891496e-05
8.142359e-05
8.147122e-05
8.400221e-05
8.655967e-05
8.142260e-05
7.891399e-05
8.392961e-05
8.901672e-05
8.923498e-05
9.159648e-05
8.899342e-05
7.891457e-05
9.441074e-05
8.917504e-05
8.916777e-05
8.407379e-05
8.149498e-05
7.891567e-05
8.906549e-05
9.424927e-05
8.392813e-05
9.437379e-05
9.437092e-05
9.181845e-05
9.182139e-05
9.152601e-05
7.891830e-05
7.891471e-05
8.142100e-05
8.142330e-05
8.149499e-05
8.149870e-05
8.142434e-05
8.142387e-05
8.147303e-05
7.891562e-05
8.147333e-05
8.142122e-05
8.400315e-05
8.643692e-05
8.916253e-05
9.152351e-05
8.142289e-05
7.891509e-05
9.183112e-05
8.917335e-05
8.913985e-05
8.666097e-05
8.407392e-05
8.400251e-05
8.913905e-05
8.908954e-05
8.901769e-05
9.437650e-05
8.658177e-05
9.429796e-05
9.181345e-05
8.393090e-05
7.891491e-05
8.147181e-05
7.891686e-05
8.400320e-05
9.160097e-05
9.159471e-05
8.392891e-05
8.397958e-05
8.142221e-05
8.147225e-05
7.891340e-05
8.149405e-05
8.655720e-05
8.650983e-05
9.422906e-05
9.408071e-05
8.397923e-05
7.891476e-05
9.441074e-05
9.180543e-05
9.152838e-05
8.909202e-05
8.666405e-05
8.643693e-05
8.916638e-05
9.164918e-05
8.894299e-05
9.437346e-05
9.408322e-05
9.415315e-05
8.921227e-05
8.393087e-05
8.149491e-05
7.891539e-05
8.901603e-05
9.182279e-05
9.174158e-05
8.916217e-05
9.174392e-05
9.408049e-05
8.901837e-05
8.142008e-05
8.405096e-05
8.405067e-05
8.393009e-05
8.658307e-05
8.916882e-05
9.417967e-05
8.392843e-05
8.147120e-05
9.183234e-05
9.182992e-05
9.174550e-05
8.923429e-05
8.894362e-05
8.658148e-05
8.899433e-05
9.167155e-05
9.408038e-05
8.901699e-05
8.392852e-05
9.150070e-05
9.422445e-05
9.437866e-05
8.393101e-05
9.407912e-05
9.174032e-05
8.901727e-05
8.147063e-05
7.891572e-05
8.899329e-05
8.650794e-05
9.422615e-05
9.150050e-05
8.142141e-05
8.149647e-05
8.405346e-05
8.655808e-05
9.175066e-05
9.174943e-05
9.437373e-05
8.392796e-05
9.438470e-05
9.438334e-05
8.916703e-05
8.666247e-05
8.665830e-05
8.906810e-05
8.651345e-05
8.909398e-05
9.415535e-05
9.400736e-05
9.437296e-05
9.400897e-05
7.891335e-05
9.422504e-05
9.415226e-05
9.167178e-05
9.400777e-05
8.142285e-05
7.891464e-05
8.147218e-05
9.167410e-05
9.438361e-05
9.430119e-05
7.891415e-05
8.147153e-05
7.891558e-05
8.147191e-05
7.891407e-05
8.400356e-05
9.150106e-05
9.159652e-05
9.159809e-05
9.430392e-05
9.438555e-05
8.393192e-05
8.656059e-05
8.665479e-05
8.648588e-05
8.656285e-05
8.149573e-05
7.891449e-05
8.147083e-05
9.152403e-05
9.159669e-05
8.147293e-05
9.145219e-05
9.159545e-05
9.430723e-05
9.157741e-05
8.397912e-05
8.147301e-05
9.182129e-05
9.182532e-05
9.167554e-05
9.408128e-05
8.655824e-05
8.149598e-05
8.149458e-05
8.405165e-05
8.397852e-05
7.891438e-05
8.397860e-05
8.393082e-05
8.650940e-05
8.667381e-05
9.183206e-05
8.648676e-05
8.658232e-05
8.655861e-05
8.400241e-05
8.149626e-05
7.891515e-05
7.891511e-05
8.142335e-05
9.145131e-05
9.408128e-05
7.891650e-05
9.150120e-05
8.894560e-05
9.157363e-05
8.397918e-05
8.400245e-05
9.437537e-05
9.182744e-05
9.159727e-05
9.152308e-05
9.152505e-05
8.142228e-05
7.891401e-05
8.149503e-05
8.405246e-05
7.891492e-05
8.397907e-05
7.891394e-05
8.648795e-05
8.650871e-05
8.917400e-05
9.183064e-05
8.392962e-05
8.906493e-05
8.658229e-05
8.400169e-05
8.142186e-05
8.149501e-05
7.891713e-05
8.149495e-05
9.152283e-05
9.152518e-05
7.891590e-05
9.145293e-05
9.159781e-05
9.438581e-05
9.408113e-05
8.656045e-05
9.182115e-05
9.174164e-05
9.145093e-05
9.145235e-05
9.152490e-05
9.145087e-05
7.891505e-05
7.891591e-05
7.891337e-05
8.149505e-05
8.142166e-05
8.643876e-05
8.924397e-05
8.658057e-05
8.408111e-05
9.182926e-05
8.643773e-05
8.658487e-05
8.392956e-05
8.400076e-05
8.147032e-05
7.891501e-05
8.142152e-05
8.147098e-05
9.422707e-05
9.408045e-05
8.392925e-05
9.429831e-05
9.400899e-05
8.665351e-05
9.437109e-05
8.393083e-05
9.430497e-05
9.181525e-05
9.408128e-05
9.145132e-05
9.152326e-05
9.145273e-05
8.142199e-05
7.891450e-05
7.891688e-05
8.142129e-05
8.665688e-05
9.175377e-05
9.181766e-05
9.410715e-05
8.906837e-05
9.183044e-05
8.400435e-05
8.658937e-05
8.400174e-05
8.656050e-05
8.142432e-05
8.147062e-05
8.142280e-05
7.891566e-05
8.901651e-05
9.174242e-05
9.430708e-05
9.167557e-05
8.142126e-05
8.899344e-05
9.181986e-05
8.916025e-05
9.167501e-05
9.160108e-05
9.159866e-05
8.894398e-05
8.894401e-05
8.400121e-05
7.891277e-05
7.891485e-05
7.891447e-05
8.142378e-05
8.909159e-05
9.174500e-05
9.159695e-05
9.408104e-05
8.149789e-05
9.175385e-05
8.407914e-05
8.656155e-05
8.400294e-05
8.393063e-05
7.891347e-05
7.891694e-05
8.147141e-05
7.891512e-05
8.147187e-05
8.901686e-05
8.899536e-05
7.891375e-05
7.891479e-05
8.655669e-05
9.150130e-05
9.152433e-05
9.423021e-05
9.415333e-05
8.658390e-05
8.149511e-05
8.400075e-05
7.891454e-05
8.147265e-05
7.891427e-05
7.891539e-05
7.891426e-05
8.894436e-05
9.436873e-05
9.145060e-05
9.408090e-05
8.405410e-05
9.175390e-05
8.405114e-05
7.891553e-05
8.655965e-05
8.655987e-05
8.142298e-05
8.397766e-05
8.147168e-05
8.397906e-05
7.891498e-05
7.891383e-05
8.142260e-05
8.142513e-05
7.891476e-05
8.400518e-05
8.916398e-05
9.167745e-05
9.166864e-05
8.908895e-05
8.914035e-05
8.149409e-05
8.392867e-05
8.147203e-05
7.891463e-05
8.147123e-05
7.891505e-05
8.397703e-05
9.149959e-05
8.665333e-05
8.650961e-05
8.894374e-05
8.916381e-05
9.183017e-05
8.407497e-05
8.648739e-05
8.400077e-05
8.392932e-05
7.891496e-05
8.397871e-05
8.405146e-05
8.142311e-05
8.142145e-05
7.891454e-05
8.147195e-05
8.149606e-05
8.142512e-05
8.407735e-05
8.665455e-05
9.157407e-05
8.901847e-05
8.921448e-05
8.648596e-05
7.891592e-05
7.891745e-05
7.891341e-05
8.149497e-05
7.891374e-05
8.146979e-05
7.891403e-05
9.164586e-05
9.400746e-05
9.150138e-05
8.906575e-05
8.924836e-05
9.182791e-05
8.400144e-05
8.648629e-05
8.393017e-05
8.142214e-05
8.142178e-05
8.397865e-05
7.891656e-05
8.147094e-05
7.891710e-05
8.147166e-05
7.891528e-05
8.149497e-05
7.891451e-05
8.149728e-05
8.663587e-05
8.906624e-05
8.397924e-05
8.405280e-05
8.648577e-05
8.142162e-05
8.142223e-05
7.891513e-05
7.891494e-05
8.147181e-05
7.891612e-05
8.913646e-05
9.440025e-05
8.651211e-05
9.408098e-05
8.658463e-05
8.921933e-05
9.183181e-05
8.147092e-05
7.891422e-05
8.147242e-05
7.891466e-05
7.891549e-05
7.891489e-05
8.147050e-05
7.891892e-05
8.142206e-05
7.891631e-05
8.648648e-05
8.392936e-05
8.142231e-05
8.392973e-05
9.150096e-05
9.400912e-05
8.643623e-05
9.400814e-05
9.400815e-05
9.144981e-05
9.415405e-05
8.149459e-05
7.891677e-05
7.891633e-05
8.655790e-05
9.440026e-05
8.913838e-05
7.891471e-05
7.891325e-05
9.410440e-05
9.415375e-05
9.438767e-05
8.400198e-05
8.147339e-05
8.142113e-05
8.142305e-05
7.891577e-05
7.891429e-05
7.891474e-05
8.400568e-05
8.643821e-05
8.901773e-05
9.415473e-05
8.909431e-05
8.899354e-05
8.923678e-05
9.429985e-05
8.901764e-05
8.899366e-05
9.145277e-05
9.159511e-05
9.166993e-05
9.437905e-05
9.182444e-05
8.393104e-05
8.147400e-05
9.182843e-05
9.182212e-05
8.149499e-05
8.142184e-05
8.655904e-05
8.400105e-05
9.182735e-05
9.167540e-05
9.145368e-05
8.142039e-05
8.149443e-05
8.149776e-05
8.397713e-05
7.891494e-05
8.400153e-05
8.643942e-05
8.650777e-05
9.422454e-05
8.650928e-05
8.913928e-05
8.899406e-05
9.157387e-05
8.149475e-05
8.149496e-05
7.891535e-05
8.149501e-05
7.891441e-05
7.891583e-05
8.149494e-05
9.167313e-05
9.174799e-05
9.174324e-05
9.181466e-05
8.142444e-05
7.891783e-05
8.142355e-05
8.655801e-05
8.405120e-05
9.183160e-05
7.891411e-05
9.145254e-05
8.405097e-05
8.655864e-05
8.392930e-05
8.149434e-05
7.891460e-05
7.891389e-05
8.648459e-05
8.916845e-05
9.437746e-05
8.407533e-05
9.415689e-05
9.174201e-05
9.430732e-05
9.182964e-05
8.658210e-05
8.147261e-05
7.891353e-05
8.650979e-05
8.142469e-05
8.142392e-05
8.149345e-05
9.164781e-05
9.152518e-05
8.146966e-05
7.891463e-05
8.142331e-05
8.405133e-05
8.392938e-05
8.149616e-05
9.183131e-05
8.407899e-05
9.152442e-05
8.147018e-05
8.142130e-05
8.655849e-05
8.407515e-05
8.149388e-05
8.147108e-05
7.891457e-05
8.142497e-05
8.909050e-05
9.408186e-05
9.182040e-05
8.906627e-05
7.891728e-05
9.159773e-05
9.175236e-05
8.643721e-05
8.656190e-05
8.899295e-05
8.914144e-05
8.663001e-05
8.397954e-05
8.142383e-05
8.142254e-05
7.891593e-05
8.147134e-05
7.891673e-05
8.142140e-05
8.142312e-05
7.891513e-05
9.183362e-05
9.183212e-05
9.168060e-05
9.176017e-05
9.433500e-05
9.182785e-05
9.175353e-05
9.175832e-05
9.182953e-05
9.441066e-05
9.175903e-05
9.440427e-05
9.182961e-05
9.430540e-05
9.182981e-05
9.183485e-05
9.183180e-05
9.438724e-05
9.182868e-05
9.431234e-05
9.175392e-05
8.659275e-05
9.175334e-05
9.438574e-05
9.441066e-05
9.183315e-05
9.441055e-05
9.183061e-05
9.183244e-05
9.183355e-05
9.182978e-05
9.183130e-05
9.183494e-05
9.182986e-05
9.152941e-05
9.183512e-05
9.183304e-05
8.922049e-05
8.408053e-05
8.666490e-05
9.183000e-05
9.183111e-05
9.175528e-05
9.182926e-05
9.438892e-05
9.182957e-05
9.159702e-05
8.147288e-05
9.145243e-05
9.183026e-05
9.438744e-05
9.182990e-05
8.909644e-05
9.423531e-05
9.441079e-05
9.183278e-05
9.168006e-05
9.175074e-05
9.182940e-05
8.924659e-05
9.183037e-05
9.183072e-05
9.182979e-05
9.183075e-05
9.183021e-05
9.180313e-05
9.182643e-05
8.916540e-05
8.407629e-05
8.666178e-05
8.651156e-05
8.665872e-05
8.400281e-05
9.167433e-05
9.152281e-05
8.149501e-05
7.891447e-05
7.891569e-05
9.174137e-05
9.429915e-05
9.181290e-05
7.891460e-05
8.142306e-05
8.142368e-05
8.916466e-05
8.656051e-05
7.891525e-05
8.149497e-05
7.891614e-05
7.891469e-05
8.400131e-05
8.149574e-05
8.149519e-05
8.149692e-05
8.655962e-05
8.405101e-05
9.183030e-05
9.183023e-05
8.651114e-05
9.174692e-05
8.650949e-05
8.658628e-05
8.658411e-05
8.666022e-05
8.643606e-05
9.408152e-05
8.648597e-05
8.146998e-05
8.147384e-05
8.397877e-05
8.149502e-05
7.891368e-05
8.149494e-05
7.891374e-05
7.891398e-05
8.142552e-05
8.899053e-05
8.650760e-05
8.655976e-05
8.393168e-05
8.407571e-05
8.393133e-05
8.142152e-05
8.400422e-05
8.142497e-05
7.891729e-05
8.405029e-05
7.891441e-05
9.438653e-05
9.438719e-05
8.142184e-05
9.174873e-05
8.658309e-05
8.147273e-05
8.393262e-05
8.392899e-05
8.149493e-05
9.167148e-05
9.400799e-05
7.891531e-05
8.397817e-05
8.398043e-05
8.405127e-05
8.648656e-05
8.142210e-05
8.142314e-05
8.142276e-05
8.643810e-05
9.152599e-05
8.901635e-05
8.648639e-05
7.891584e-05
8.400398e-05
8.392979e-05
7.891571e-05
8.397755e-05
8.142195e-05
8.397832e-05
8.397880e-05
8.147171e-05
9.183116e-05
9.182916e-05
8.405338e-05
9.159892e-05
9.179173e-05
8.407447e-05
8.913867e-05
8.648574e-05
7.891286e-05
9.400997e-05
9.400855e-05
7.891478e-05
8.147058e-05
8.397889e-05
8.147092e-05
7.891552e-05
7.891361e-05
7.891466e-05
8.147091e-05
9.152322e-05
9.400721e-05
9.152372e-05
8.643737e-05
7.891508e-05
8.149436e-05
8.400314e-05
8.658398e-05
8.914161e-05
8.392782e-05
8.397944e-05
8.655691e-05
8.405043e-05
9.183153e-05
9.440763e-05
8.923969e-05
9.179561e-05
8.921487e-05
8.916201e-05
8.658176e-05
8.658100e-05
8.142226e-05
9.145122e-05
9.159599e-05
8.405143e-05
8.142394e-05
8.142162e-05
8.392987e-05
9.152281e-05
8.142308e-05
8.142275e-05
8.142278e-05
9.145194e-05
9.159678e-05
9.152444e-05
9.150106e-05
8.397861e-05
8.142194e-05
8.651011e-05
9.415717e-05
8.916456e-05
8.906935e-05
8.648717e-05
9.166985e-05
9.182035e-05
9.182873e-05
9.175536e-05
9.157281e-05
8.906706e-05
8.400422e-05
8.408048e-05
8.651005e-05
8.909207e-05
9.415257e-05
9.174163e-05
9.174084e-05
9.408125e-05
9.415815e-05
9.160019e-05
9.430127e-05
9.408066e-05
9.174468e-05
9.160029e-05
9.159683e-05
9.167104e-05
9.172042e-05
9.167364e-05
9.422789e-05
8.142041e-05
9.400859e-05
9.174040e-05
9.174093e-05
9.437114e-05
9.415248e-05
9.407980e-05
9.439415e-05
9.150103e-05
9.183146e-05
9.182936e-05
8.400243e-05
7.891424e-05
8.147060e-05
8.651263e-05
8.909278e-05
9.164540e-05
9.415405e-05
9.422510e-05
8.392826e-05
8.651063e-05
9.157513e-05
8.665504e-05
8.658504e-05
8.142103e-05
8.902061e-05
8.899230e-05