# vtk DataFile Version 3.0
Cu single-crystal phase-field data
ASCII
DATASET STRUCTURED_POINTS
DIMENSIONS 32 32 16
ORIGIN 0 0 0
SPACING 5.000000e-07 5.000000e-07 5.000000e-07
POINT_DATA 16384
SCALARS crack float 1
LOOKUP_TABLE default
1.888132e-04
1.888134e-04
1.887888e-04
1.862373e-04
1.862329e-04
1.862332e-04
1.862370e-04
1.862351e-04
1.862333e-04
1.862376e-04
1.888133e-04
1.888133e-04
1.862347e-04
1.862334e-04
1.888132e-04
1.862331e-04
1.861589e-04
1.862332e-04
1.862413e-04
1.862395e-04
1.888133e-04
1.887897e-04
1.888132e-04
1.888133e-04
1.887887e-04
1.887887e-04
1.888134e-04
1.887884e-04
1.862334e-04
1.862312e-04
1.862342e-04
1.862369e-04
1.862304e-04
1.887045e-04
1.810693e-04
1.835717e-04
1.835716e-04
1.836473e-04
1.834986e-04
1.836502e-04
1.860816e-04
1.884874e-04
1.858553e-04
1.808129e-04
1.858541e-04
1.887888e-04
1.888129e-04
1.887900e-04
1.860840e-04
1.862399e-04
1.836579e-04
1.862374e-04
1.836527e-04
1.862308e-04
1.887891e-04
1.886371e-04
1.810675e-04
1.887333e-04
1.887376e-04
1.887122e-04
1.861579e-04
1.887134e-04
1.888128e-04
1.862381e-04
1.861551e-04
1.862278e-04
1.834970e-04
1.810694e-04
1.835484e-04
1.834971e-04
1.784818e-04
1.860831e-04
1.862331e-04
1.888133e-04
1.887889e-04
1.861572e-04
1.862297e-04
1.861371e-04
1.810252e-04
1.810631e-04
1.861298e-04
1.862308e-04
1.862343e-04
1.888127e-04
1.835748e-04
1.862353e-04
1.862310e-04
1.861553e-04
1.862048e-04
1.887372e-04
1.886608e-04
1.861592e-04
1.862286e-04
1.888096e-04
1.887886e-04
1.888135e-04
1.861570e-04
1.862320e-04
1.862202e-04
1.887895e-04
1.888128e-04
1.887888e-04
1.862316e-04
1.862309e-04
1.862379e-04
1.887821e-04
1.887881e-04
1.862362e-04
1.862037e-04
1.861533e-04
1.861584e-04
1.887132e-04
1.888094e-04
1.887100e-04
1.861651e-04
1.886351e-04
1.835721e-04
1.861564e-04
1.862312e-04
1.835732e-04
1.887892e-04
1.888128e-04
1.888128e-04
1.887855e-04
1.862293e-04
1.888126e-04
1.862312e-04
1.888133e-04
1.861558e-04
1.862284e-04
1.862325e-04
1.887150e-04
1.887067e-04
1.862303e-04
1.888122e-04
1.862337e-04
1.887881e-04
1.886585e-04
1.888128e-04
1.861567e-04
1.888125e-04
1.888120e-04
1.862351e-04
1.862351e-04
1.887096e-04
1.888125e-04
1.887117e-04
1.836483e-04
1.887121e-04
1.862307e-04
1.862316e-04
1.861567e-04
1.862341e-04
1.887892e-04
1.862330e-04
1.887881e-04
1.887871e-04
1.887128e-04
1.862305e-04
1.887900e-04
1.861590e-04
1.862394e-04
1.887896e-04
1.888127e-04
1.887367e-04
1.836483e-04
1.887841e-04
1.862339e-04
1.862318e-04
1.887071e-04
1.887824e-04
1.861595e-04
1.888089e-04
1.887371e-04
1.886384e-04
1.862366e-04
1.862349e-04
1.862335e-04
1.861531e-04
1.886361e-04
1.860040e-04
1.862281e-04
1.862318e-04
1.862326e-04
1.862346e-04
1.862347e-04
1.862049e-04
1.888130e-04
1.887876e-04
1.861547e-04
1.862283e-04
1.887118e-04
1.862316e-04
1.861599e-04
1.862324e-04
1.887908e-04
1.860793e-04
1.861297e-04
1.862299e-04
1.887880e-04
1.862340e-04
1.862332e-04
1.888133e-04
1.862364e-04
1.862306e-04
1.887859e-04
1.888132e-04
1.860119e-04
1.808431e-04
1.857759e-04
1.858264e-04
1.860028e-04
1.808402e-04
1.860698e-04
1.862300e-04
1.888098e-04
1.862178e-04
1.861497e-04
1.862294e-04
1.887116e-04
1.861597e-04
1.862321e-04
1.887891e-04
1.888133e-04
1.862336e-04
1.862319e-04
1.862302e-04
1.862311e-04
1.861557e-04
1.886382e-04
1.885860e-04
1.885859e-04
1.860075e-04
1.857050e-04
1.860106e-04
1.888133e-04
1.862327e-04
1.862375e-04
1.862321e-04
1.836463e-04
1.887140e-04
1.861265e-04
1.888127e-04
1.861302e-04
1.835756e-04
1.784891e-04
1.860829e-04
1.888131e-04
1.862310e-04
1.887892e-04
1.862318e-04
1.861561e-04
1.860807e-04
1.836501e-04
1.836473e-04
1.887898e-04
1.862323e-04
1.862351e-04
1.862333e-04
1.862343e-04
1.862269e-04
1.861622e-04
1.887873e-04
1.862279e-04
1.862295e-04
1.888131e-04
1.862348e-04
1.862314e-04
1.888130e-04
1.862326e-04
1.888125e-04
1.888125e-04
1.888123e-04
1.887137e-04
1.887874e-04
1.862351e-04
1.862336e-04
1.862328e-04
1.861558e-04
1.862310e-04
1.888125e-04
1.888126e-04
1.887892e-04
1.862340e-04
1.862320e-04
1.862343e-04
1.862320e-04
1.887893e-04
1.862308e-04
1.862319e-04
1.862300e-04
1.862317e-04
1.887369e-04
1.861555e-04
1.888129e-04
1.862336e-04
1.887880e-04
1.861590e-04
1.888099e-04
1.862305e-04
1.861530e-04
1.862332e-04
1.862304e-04
1.862321e-04
1.887887e-04
1.887908e-04
1.862298e-04
1.887890e-04
1.861578e-04
1.862326e-04
1.862063e-04
1.862285e-04
1.862345e-04
1.887900e-04
1.887844e-04
1.861595e-04
1.836515e-04
1.861560e-04
1.887884e-04
1.888134e-04
1.862330e-04
1.862312e-04
1.862328e-04
1.862337e-04
1.862290e-04
1.862299e-04
1.862332e-04
1.887886e-04
1.888130e-04
1.862059e-04
1.861588e-04
1.887130e-04
1.861571e-04
1.862323e-04
1.862346e-04
1.862358e-04
1.887900e-04
1.888124e-04
1.862334e-04
1.888123e-04
1.887866e-04
1.887897e-04
1.888126e-04
1.887127e-04
1.862328e-04
1.887883e-04
1.888128e-04
1.836227e-04
1.835729e-04
1.836482e-04
1.861568e-04
1.887132e-04
1.862361e-04
1.836505e-04
1.862325e-04
1.887891e-04
1.862332e-04
1.860816e-04
1.860740e-04
1.862354e-04
1.887849e-04
1.861585e-04
1.887127e-04
1.886617e-04
1.887118e-04
1.862357e-04
1.862352e-04
1.862296e-04
1.862327e-04
1.887893e-04
1.862360e-04
1.887865e-04
1.862338e-04
1.862308e-04
1.886380e-04
1.862277e-04
1.862308e-04
1.862314e-04
1.887855e-04
1.835746e-04
1.835630e-04
1.835681e-04
1.887373e-04
1.861599e-04
1.862365e-04
1.862286e-04
1.887879e-04
1.888126e-04
1.888125e-04
1.862345e-04
1.861535e-04
1.888102e-04
1.886375e-04
1.835705e-04
1.862297e-04
1.887104e-04
1.862326e-04
1.862409e-04
1.887876e-04
1.862317e-04
1.836483e-04
1.862322e-04
1.862373e-04
1.836471e-04
1.887904e-04
1.862367e-04
1.888127e-04
1.862311e-04
1.862331e-04
1.836489e-04
1.835753e-04
1.809155e-04
1.833207e-04
1.835014e-04
1.836500e-04
1.861569e-04
1.862323e-04
1.861567e-04
1.860817e-04
1.887895e-04
1.862299e-04
1.861565e-04
1.887376e-04
1.888099e-04
1.835683e-04
1.834713e-04
1.809879e-04
1.858421e-04
1.862366e-04
1.888119e-04
1.888126e-04
1.887883e-04
1.862338e-04
1.836514e-04
1.861625e-04
1.887900e-04
1.888125e-04
1.862362e-04
1.888127e-04
1.887889e-04
1.862315e-04
1.836503e-04
1.810682e-04
1.809650e-04
1.833439e-04
1.860557e-04
1.862302e-04
1.862341e-04
1.862321e-04
1.860734e-04
1.784853e-04
1.810664e-04
1.862319e-04
1.835723e-04
1.860750e-04
1.887863e-04
1.809905e-04
1.836498e-04
1.887371e-04
1.834974e-04
1.887680e-04
1.888129e-04
1.888122e-04
1.862182e-04
1.862290e-04
1.862280e-04
1.862331e-04
1.862268e-04
1.887135e-04
1.861578e-04
1.887882e-04
1.836489e-04
1.861554e-04
1.862294e-04
1.861307e-04
1.836469e-04
1.833201e-04
1.834954e-04
1.836492e-04
1.862347e-04
1.862326e-04
1.759064e-04
1.784826e-04
1.784853e-04
1.809948e-04
1.810677e-04
1.834215e-04
1.887899e-04
1.834940e-04
1.886377e-04
1.888129e-04
1.862305e-04
1.862342e-04
1.886617e-04
1.860829e-04
1.862300e-04
1.862324e-04
1.862357e-04
1.887886e-04
1.862329e-04
1.885037e-04
1.862193e-04
1.862325e-04
1.862349e-04
1.836502e-04
1.862287e-04
1.888129e-04
1.861305e-04
1.784810e-04
1.860722e-04
1.861584e-04
1.862326e-04
1.887903e-04
1.862376e-04
1.862385e-04
1.810660e-04
1.836223e-04
1.835769e-04
1.836482e-04
1.862336e-04
1.888135e-04
1.862227e-04
1.862324e-04
1.862330e-04
1.862348e-04
1.835749e-04
1.836483e-04
1.861566e-04
1.862380e-04
1.888119e-04
1.888128e-04
1.887888e-04
1.655694e-04
1.856216e-04
1.888128e-04
1.862315e-04
1.887883e-04
1.888125e-04
1.888119e-04
1.862347e-04
1.836506e-04
1.862321e-04
1.860052e-04
1.862385e-04
1.888141e-04
1.887896e-04
1.862327e-04
1.887142e-04
1.836501e-04
1.862067e-04
1.862336e-04
1.862330e-04
1.862319e-04
1.862333e-04
1.862274e-04
1.862359e-04
1.862348e-04
1.809917e-04
1.836454e-04
1.887374e-04
1.888122e-04
1.888132e-04
1.888123e-04
1.707346e-04
1.604049e-04
1.855516e-04
1.862330e-04
1.862322e-04
1.836502e-04
1.862067e-04
1.862316e-04
1.862377e-04
1.862323e-04
1.887907e-04
1.810664e-04
1.862412e-04
1.887894e-04
1.862304e-04
1.888126e-04
1.888128e-04
1.887132e-04
1.862335e-04
1.887900e-04
1.862319e-04
1.862325e-04
1.836498e-04
1.860835e-04
1.888131e-04
1.862345e-04
1.809918e-04
1.862349e-04
1.888132e-04
1.888134e-04
1.888128e-04
1.732424e-04
1.654933e-04
1.604048e-04
1.854763e-04
1.862321e-04
1.862355e-04
1.862347e-04
1.862357e-04
1.888125e-04
1.862346e-04
1.887888e-04
1.888130e-04
1.861310e-04
1.862320e-04
1.862330e-04
1.862311e-04
1.887129e-04
1.862296e-04
1.887133e-04
1.887890e-04
1.888126e-04
1.887892e-04
1.862308e-04
1.862337e-04
1.862276e-04
1.862348e-04
1.861592e-04
1.835062e-04
1.809102e-04
1.862324e-04
1.862065e-04
1.861545e-04
1.707365e-04
1.603299e-04
1.603280e-04
1.679216e-04
1.861373e-04
1.862320e-04
1.862367e-04
1.862345e-04
1.862314e-04
1.862342e-04
1.862336e-04
1.887899e-04
1.860799e-04
1.862316e-04
1.862356e-04
1.862323e-04
1.862380e-04
1.862058e-04
1.887893e-04
1.862322e-04
1.888126e-04
1.862404e-04
1.888129e-04
1.862319e-04
1.862329e-04
1.888134e-04
1.861587e-04
1.858540e-04
1.883496e-04
1.861567e-04
1.861563e-04
1.810709e-04
1.653453e-04
1.653437e-04
1.679241e-04
1.706525e-04
1.835593e-04
1.861580e-04
1.862333e-04
1.862325e-04
1.862323e-04
1.836494e-04
1.784871e-04
1.834974e-04
1.836489e-04
1.862345e-04
1.862333e-04
1.862336e-04
1.836501e-04
1.836232e-04
1.888128e-04
1.887888e-04
1.862339e-04
1.862331e-04
1.862303e-04
1.861604e-04
1.862378e-04
1.862310e-04
1.862280e-04
1.887889e-04
1.887780e-04
1.809079e-04
1.810605e-04
1.705822e-04
1.808107e-04
1.806901e-04
1.857763e-04
1.836353e-04
1.862245e-04
1.862331e-04
1.862342e-04
1.862362e-04
1.862346e-04
1.836498e-04
1.784119e-04
1.809173e-04
1.862306e-04
1.888138e-04
1.862340e-04
1.861580e-04
1.861519e-04
1.836520e-04
1.887896e-04
1.862369e-04
1.862356e-04
1.862319e-04
1.888127e-04
1.862328e-04
1.861568e-04
1.862374e-04
1.887903e-04
1.888133e-04
1.886620e-04
1.834685e-04
1.758254e-04
1.758706e-04
1.861514e-04
1.887339e-04
1.861573e-04
1.835735e-04
1.862324e-04
1.862325e-04
1.862320e-04
1.862326e-04
1.862335e-04
1.862317e-04
1.784064e-04
1.784088e-04
1.810652e-04
1.862366e-04
1.862320e-04
1.862314e-04
1.888127e-04
1.861579e-04
1.862316e-04
1.862336e-04
1.862351e-04
1.836490e-04
1.862310e-04
1.836489e-04
1.862301e-04
1.862343e-04
1.862315e-04
1.887889e-04
1.887112e-04
1.809874e-04
1.862002e-04
1.836482e-04
1.888090e-04
1.888100e-04
1.887144e-04
1.861552e-04
1.862346e-04
1.888128e-04
1.862337e-04
1.862336e-04
1.862316e-04
1.887136e-04
1.835712e-04
1.836446e-04
1.887134e-04
1.862332e-04
1.862330e-04
1.862313e-04
1.862278e-04
1.835761e-04
1.862326e-04
1.862310e-04
1.862322e-04
1.862306e-04
1.862311e-04
1.862305e-04
1.862330e-04
1.862359e-04
1.861630e-04
1.862335e-04
1.862287e-04
1.887841e-04
1.888095e-04
1.887841e-04
1.887859e-04
1.887888e-04
1.862375e-04
1.862320e-04
1.887886e-04
1.888127e-04
1.887874e-04
1.862314e-04
1.887884e-04
1.888128e-04
1.887036e-04
1.887868e-04
1.888130e-04
1.888134e-04
1.861581e-04
1.862290e-04
1.862320e-04
1.862320e-04
1.862306e-04
1.862322e-04
1.862306e-04
1.888124e-04
1.862334e-04
1.862321e-04
1.862321e-04
1.888125e-04
1.862316e-04
1.862375e-04
1.862341e-04
1.887851e-04
1.887123e-04
1.887102e-04
1.860810e-04
1.862058e-04
1.862336e-04
1.861570e-04
1.862322e-04
1.887882e-04
1.862338e-04
1.888125e-04
1.887897e-04
1.861597e-04
1.862305e-04
1.862353e-04
1.887873e-04
1.888135e-04
1.862331e-04
1.862314e-04
1.888123e-04
1.862318e-04
1.862308e-04
1.862314e-04
1.862309e-04
1.862326e-04
1.862342e-04
1.862354e-04
1.862329e-04
1.862320e-04
1.862340e-04
1.862319e-04
1.887889e-04
1.888131e-04
1.862054e-04
1.860843e-04
1.887151e-04
1.862328e-04
1.862335e-04
1.886377e-04
1.862290e-04
1.862335e-04
1.862368e-04
1.887870e-04
1.888097e-04
1.888092e-04
1.887123e-04
1.888096e-04
1.888129e-04
1.888130e-04
1.886380e-04
1.862302e-04
1.862347e-04
1.862323e-04
1.862359e-04
1.887887e-04
1.862333e-04
1.862308e-04
1.862317e-04
1.862318e-04
1.862332e-04
1.862332e-04
1.862356e-04
1.862285e-04
1.861553e-04
1.887854e-04
1.888100e-04
1.862286e-04
1.887885e-04
1.862303e-04
1.887892e-04
1.888129e-04
1.887008e-04
1.884079e-04
1.858554e-04
1.857643e-04
1.886608e-04
1.887370e-04
1.887869e-04
1.862280e-04
1.862294e-04
1.887884e-04
1.887373e-04
1.887897e-04
1.862360e-04
1.861546e-04
1.862055e-04
1.888123e-04
1.887877e-04
1.862317e-04
1.862315e-04
1.862318e-04
1.862311e-04
1.862299e-04
1.862308e-04
1.862296e-04
1.861559e-04
1.862337e-04
1.862297e-04
1.887875e-04
1.888128e-04
1.887890e-04
1.862326e-04
1.887873e-04
1.887892e-04
1.888098e-04
1.887893e-04
1.862337e-04
1.862346e-04
1.887902e-04
1.887138e-04
1.887840e-04
1.888127e-04
1.888131e-04
1.887138e-04
1.862340e-04
1.862310e-04
1.862302e-04
1.862279e-04
1.887873e-04
1.862328e-04
1.862299e-04
1.862338e-04
1.862319e-04
1.887849e-04
1.862297e-04
1.888097e-04
1.888127e-04
1.862323e-04
1.860722e-04
1.862266e-04
1.862306e-04
1.888127e-04
1.862318e-04
1.861592e-04
1.887874e-04
1.862391e-04
1.886377e-04
1.834216e-04
1.862327e-04
1.862366e-04
1.887145e-04
1.862296e-04
1.887887e-04
1.887891e-04
1.862349e-04
1.861588e-04
1.860798e-04
1.861570e-04
1.862296e-04
1.836506e-04
1.862292e-04
1.862362e-04
1.862319e-04
1.888123e-04
1.862389e-04
1.888126e-04
1.887364e-04
1.888094e-04
1.887125e-04
1.862334e-04
1.862352e-04
1.887865e-04
1.862320e-04
1.862329e-04
1.862307e-04
1.861281e-04
1.888095e-04
1.862043e-04
1.860780e-04
1.862257e-04
1.888130e-04
1.862322e-04
1.862313e-04
1.887115e-04
1.861572e-04
1.862366e-04
1.862378e-04
1.836564e-04
1.862328e-04
1.862343e-04
1.861575e-04
1.862329e-04
1.862338e-04
1.862321e-04
1.862319e-04
1.862331e-04
1.862337e-04
1.862343e-04
1.887892e-04
1.888130e-04
1.887898e-04
1.862345e-04
1.887893e-04
1.888131e-04
1.862064e-04
1.862329e-04
1.862321e-04
1.862339e-04
1.888130e-04
1.862386e-04
1.862389e-04
1.862345e-04
1.862335e-04
1.862330e-04
1.862353e-04
1.862407e-04
1.862348e-04
1.862352e-04
1.862335e-04
1.888134e-04
1.884866e-04
1.835748e-04
1.836506e-04
1.809913e-04
1.784844e-04
1.784851e-04
1.836483e-04
1.860815e-04
1.862302e-04
1.888099e-04
1.887373e-04
1.887867e-04
1.887907e-04
1.888130e-04
1.887911e-04
1.862284e-04
1.862369e-04
1.862397e-04
1.886366e-04
1.887375e-04
1.887127e-04
1.887901e-04
1.861306e-04
1.861558e-04
1.862359e-04
1.887882e-04
1.862328e-04
1.862338e-04
1.862323e-04
1.888130e-04
1.862378e-04
1.758238e-04
1.858897e-04
1.679233e-04
1.628347e-04
1.654878e-04
1.654158e-04
1.655652e-04
1.653446e-04
1.679957e-04
1.756678e-04
1.780798e-04
1.805311e-04
1.758118e-04
1.757509e-04
1.808215e-04
1.861423e-04
1.855505e-04
1.578243e-04
1.578222e-04
1.654610e-04
1.655367e-04
1.629577e-04
1.578210e-04
1.629083e-04
1.629076e-04
1.629092e-04
1.603774e-04
1.603313e-04
1.603295e-04
1.603776e-04
1.578223e-04
1.888141e-04
1.810378e-04
1.780987e-04
1.705060e-04
1.629074e-04
1.655613e-04
1.655607e-04
1.655598e-04
1.603295e-04
1.754217e-04
1.705752e-04
1.705750e-04
1.678501e-04
1.730096e-04
1.834014e-04
1.885404e-04
1.857705e-04
1.654165e-04
1.603321e-04
1.603743e-04
1.578218e-04
1.654648e-04
1.604017e-04
1.603294e-04
1.628368e-04
1.603284e-04
1.653923e-04
1.653922e-04
1.603273e-04
1.603281e-04
1.628846e-04
1.604011e-04
1.888142e-04
1.836470e-04
1.704295e-04
1.757375e-04
1.679969e-04
1.628870e-04
1.653437e-04
1.679004e-04
1.628357e-04
1.806527e-04
1.833087e-04
1.654907e-04
1.654186e-04
1.731319e-04
1.705034e-04
1.729403e-04
1.654142e-04
1.654637e-04
1.629567e-04
1.603341e-04
1.628355e-04
1.628351e-04
1.603279e-04
1.603271e-04
1.628354e-04
1.628366e-04
1.629086e-04
1.578217e-04
1.603766e-04
1.629555e-04
1.603283e-04
1.578208e-04
1.888140e-04
1.861542e-04
1.654943e-04
1.629087e-04
1.703566e-04
1.706540e-04
1.681237e-04
1.578198e-04
1.603793e-04
1.803877e-04
1.857468e-04
1.629095e-04
1.654143e-04
1.629083e-04
1.628358e-04
1.629081e-04
1.603303e-04
1.629580e-04
1.578204e-04
1.603303e-04
1.628842e-04
1.628849e-04
1.578218e-04
1.578215e-04
1.603284e-04
1.603285e-04
1.628344e-04
1.654642e-04
1.604004e-04
1.603292e-04
1.654674e-04
1.654173e-04
1.862302e-04
1.862305e-04
1.730591e-04
1.705033e-04
1.680674e-04
1.603283e-04
1.681210e-04
1.680494e-04
1.578197e-04
1.728649e-04
1.810501e-04
1.856709e-04
1.830408e-04
1.856167e-04
1.882485e-04
1.881059e-04
1.780979e-04
1.729369e-04
1.729127e-04
1.728645e-04
1.778823e-04
1.779506e-04
1.728649e-04
1.703567e-04
1.704069e-04
1.753703e-04
1.854719e-04
1.879574e-04
1.779994e-04
1.755177e-04
1.856241e-04
1.856966e-04
1.861524e-04
1.861591e-04
1.704290e-04
1.678490e-04
1.654897e-04
1.680461e-04
1.628341e-04
1.705533e-04
1.729875e-04
1.653413e-04
1.805818e-04
1.780979e-04
1.857629e-04
1.856663e-04
1.855945e-04
1.806026e-04
1.883217e-04
1.856923e-04
1.856169e-04
1.883930e-04
1.830370e-04
1.857400e-04
1.857609e-04
1.830873e-04
1.881030e-04
1.884714e-04
1.855449e-04
1.856177e-04
1.780263e-04
1.881036e-04
1.857400e-04
1.753703e-04
1.887897e-04
1.862333e-04
1.603280e-04
1.603777e-04
1.603999e-04
1.628360e-04
1.681387e-04
1.732304e-04
1.783747e-04
1.809551e-04
1.835229e-04
1.809812e-04
1.706520e-04
1.679231e-04
1.628356e-04
1.653433e-04
1.706281e-04
1.653414e-04
1.730829e-04
1.756376e-04
1.730664e-04
1.730808e-04
1.756404e-04
1.782292e-04
1.780743e-04
1.729373e-04
1.653416e-04
1.655606e-04
1.706510e-04
1.706503e-04
1.653942e-04
1.628353e-04
1.862338e-04
1.862350e-04
1.628876e-04
1.603277e-04
1.629798e-04
1.706252e-04
1.679234e-04
1.705533e-04
1.732037e-04
1.755692e-04
1.628356e-04
1.781692e-04
1.808257e-04
1.729865e-04
1.603313e-04
1.653931e-04
1.680446e-04
1.628841e-04
1.655640e-04
1.628345e-04
1.628342e-04
1.628350e-04
1.653425e-04
1.654150e-04
1.604011e-04
1.578211e-04
1.604013e-04
1.603286e-04
1.603308e-04
1.653415e-04
1.628345e-04
1.679260e-04
1.860851e-04
1.861565e-04
1.628365e-04
1.628351e-04
1.680450e-04
1.628351e-04
1.629126e-04
1.679246e-04
1.704805e-04
1.604010e-04
1.654878e-04
1.679952e-04
1.807273e-04
1.729156e-04
1.603277e-04
1.628841e-04
1.655421e-04
1.654168e-04
1.629831e-04
1.603306e-04
1.603999e-04
1.629075e-04
1.655378e-04
1.654893e-04
1.654146e-04
1.628872e-04
1.604018e-04
1.679995e-04
1.705771e-04
1.679250e-04
1.705042e-04
1.704285e-04
1.887146e-04
1.862348e-04
1.578210e-04
1.604030e-04
1.629805e-04
1.680448e-04
1.629838e-04
1.730597e-04
1.703603e-04
1.629551e-04
1.679222e-04
1.832337e-04
1.783183e-04
1.704313e-04
1.578218e-04
1.578228e-04
1.628853e-04
1.628368e-04
1.603782e-04
1.578226e-04
1.603770e-04
1.629078e-04
1.629803e-04
1.681182e-04
1.629080e-04
1.603284e-04
1.629095e-04
1.705539e-04
1.732025e-04
1.705011e-04
1.680664e-04
1.654647e-04
1.861606e-04
1.862282e-04
1.654896e-04
1.603283e-04
1.604020e-04
1.655371e-04
1.680755e-04
1.780236e-04
1.729864e-04
1.654156e-04
1.831115e-04
1.807517e-04
1.807969e-04
1.679975e-04
1.603285e-04
1.578213e-04
1.578213e-04
1.603280e-04
1.578217e-04
1.578213e-04
1.603299e-04
1.603774e-04
1.629084e-04
1.654659e-04
1.603287e-04
1.578203e-04
1.628356e-04
1.679228e-04
1.681409e-04
1.730852e-04
1.730615e-04
1.629105e-04
1.887383e-04
1.835782e-04
1.680737e-04
1.629799e-04
1.604011e-04
1.578220e-04
1.679717e-04
1.806769e-04
1.730104e-04
1.860330e-04
1.859577e-04
1.836256e-04
1.809013e-04
1.704319e-04
1.578246e-04
1.578210e-04
1.603272e-04
1.603294e-04
1.604012e-04
1.604048e-04
1.603305e-04
1.603301e-04
1.603792e-04
1.578219e-04
1.603795e-04
1.603275e-04
1.629092e-04
1.653430e-04
1.706483e-04
1.755921e-04
1.679258e-04
1.604039e-04
1.861587e-04
1.835764e-04
1.680456e-04
1.655670e-04
1.629798e-04
1.629088e-04
1.680449e-04
1.780239e-04
1.781000e-04
1.884758e-04
1.807478e-04
1.886121e-04
1.862124e-04
1.628368e-04
1.578212e-04
1.603779e-04
1.578232e-04
1.779518e-04
1.855502e-04
1.855435e-04
1.628349e-04
1.628857e-04
1.603284e-04
1.603784e-04
1.578197e-04
1.604002e-04
1.654632e-04
1.654157e-04
1.757147e-04
1.781463e-04
1.704791e-04
1.628353e-04
1.888140e-04
1.861327e-04
1.729414e-04
1.679976e-04
1.655699e-04
1.653427e-04
1.680720e-04
1.805834e-04
1.780219e-04
1.885395e-04
1.881827e-04
1.881744e-04
1.836131e-04
1.783320e-04
1.704295e-04
1.678501e-04
1.834140e-04
1.862062e-04
1.856896e-04
1.835453e-04
1.861274e-04
1.729865e-04
1.679242e-04
1.603262e-04
1.629572e-04
1.629568e-04
1.628360e-04
1.654889e-04
1.705818e-04
1.782482e-04
1.705037e-04
1.654640e-04
1.862355e-04
1.862330e-04
1.706511e-04
1.681400e-04
1.678492e-04
1.654873e-04
1.679000e-04
1.806058e-04
1.858149e-04
1.806061e-04
1.704282e-04
1.704063e-04
1.731302e-04
1.884721e-04
1.783173e-04
1.884685e-04
1.858340e-04
1.679229e-04
1.603767e-04
1.578220e-04
1.833768e-04
1.808918e-04
1.831610e-04
1.704065e-04
1.603275e-04
1.604026e-04
1.629595e-04
1.654640e-04
1.706564e-04
1.732352e-04
1.784420e-04
1.679960e-04
1.887877e-04
1.887866e-04
1.680727e-04
1.655683e-04
1.655642e-04
1.679739e-04
1.654192e-04
1.679995e-04
1.830897e-04
1.881733e-04
1.887745e-04
1.779291e-04
1.578197e-04
1.756378e-04
1.881734e-04
1.857683e-04
1.729136e-04
1.603290e-04
1.578210e-04
1.603783e-04
1.859945e-04
1.887684e-04
1.882503e-04
1.578205e-04
1.603776e-04
1.578219e-04
1.603780e-04
1.578204e-04
1.629095e-04
1.704070e-04
1.705025e-04
1.730111e-04
1.887072e-04
1.887891e-04
1.628379e-04
1.654665e-04
1.655608e-04
1.653919e-04
1.654688e-04
1.604018e-04
1.578208e-04
1.603769e-04
1.857633e-04
1.855457e-04
1.603790e-04
1.728651e-04
1.856169e-04
1.883287e-04
1.704834e-04
1.628852e-04
1.603791e-04
1.783964e-04
1.862209e-04
1.858417e-04
1.880303e-04
1.654642e-04
1.604021e-04
1.604007e-04
1.629579e-04
1.628846e-04
1.578207e-04
1.628847e-04
1.628371e-04
1.654152e-04
1.810772e-04
1.862356e-04
1.653928e-04
1.654884e-04
1.654647e-04
1.629086e-04
1.604024e-04
1.578215e-04
1.578214e-04
1.603295e-04
1.854009e-04
1.880305e-04
1.578228e-04
1.704069e-04
1.829672e-04
1.855950e-04
1.628853e-04
1.629087e-04
1.757884e-04
1.809853e-04
1.859172e-04
1.856171e-04
1.854741e-04
1.603284e-04
1.578203e-04
1.604011e-04
1.629585e-04
1.578212e-04
1.628851e-04
1.578203e-04
1.653940e-04
1.654149e-04
1.835772e-04
1.862339e-04
1.628357e-04
1.679710e-04
1.654885e-04
1.629076e-04
1.603280e-04
1.604012e-04
1.578234e-04
1.604011e-04
1.854723e-04
1.856192e-04
1.578222e-04
1.778802e-04
1.859845e-04
1.887754e-04
1.754940e-04
1.654664e-04
1.758135e-04
1.861369e-04
1.856954e-04
1.854009e-04
1.854739e-04
1.753710e-04
1.578214e-04
1.578222e-04
1.578197e-04
1.604013e-04
1.603279e-04
1.653449e-04
1.681503e-04
1.654865e-04
1.784842e-04
1.862324e-04
1.653438e-04
1.654909e-04
1.628355e-04
1.629068e-04
1.603765e-04
1.578213e-04
1.603276e-04
1.603771e-04
1.831619e-04
1.884704e-04
1.780227e-04
1.886879e-04
1.883286e-04
1.810516e-04
1.887544e-04
1.778794e-04
1.887061e-04
1.862108e-04
1.880298e-04
1.853999e-04
1.829648e-04
1.728655e-04
1.603281e-04
1.578208e-04
1.578232e-04
1.603274e-04
1.655629e-04
1.706597e-04
1.707237e-04
1.730131e-04
1.834714e-04
1.862335e-04
1.629105e-04
1.654952e-04
1.629079e-04
1.654666e-04
1.603305e-04
1.603768e-04
1.603289e-04
1.578220e-04
1.679223e-04
1.806773e-04
1.882561e-04
1.831174e-04
1.603274e-04
1.678995e-04
1.858415e-04
1.833266e-04
1.859140e-04
1.805357e-04
1.780261e-04
1.753715e-04
1.728645e-04
1.629072e-04
1.578191e-04
1.578212e-04
1.578208e-04
1.603300e-04
1.679978e-04
1.706510e-04
1.705033e-04
1.729871e-04
1.759009e-04
1.861570e-04
1.629852e-04
1.654676e-04
1.629090e-04
1.628366e-04
1.578198e-04
1.578233e-04
1.603776e-04
1.578214e-04
1.603780e-04
1.679230e-04
1.679014e-04
1.578201e-04
1.578211e-04
1.654627e-04
1.704073e-04
1.729376e-04
1.756436e-04
1.730596e-04
1.654899e-04
1.604012e-04
1.629067e-04
1.578208e-04
1.603788e-04
1.578206e-04
1.578217e-04
1.578206e-04
1.678506e-04
1.732750e-04
1.703570e-04
1.729869e-04
1.784573e-04
1.861575e-04
1.629570e-04
1.578218e-04
1.654656e-04
1.654659e-04
1.603291e-04
1.628838e-04
1.603778e-04
1.628852e-04
1.578213e-04
1.578201e-04
1.603288e-04
1.603313e-04
1.578211e-04
1.629112e-04
1.680701e-04
1.705836e-04
1.705748e-04
1.679951e-04
1.680465e-04
1.604002e-04
1.628346e-04
1.603781e-04
1.578209e-04
1.603773e-04
1.578214e-04
1.628833e-04
1.704060e-04
1.655594e-04
1.654157e-04
1.678498e-04
1.835672e-04
1.862336e-04
1.629809e-04
1.653934e-04
1.629067e-04
1.628352e-04
1.578213e-04
1.628848e-04
1.629577e-04
1.603292e-04
1.603276e-04
1.578209e-04
1.603781e-04
1.604022e-04
1.603312e-04
1.629833e-04
1.655606e-04
1.704805e-04
1.679247e-04
1.681210e-04
1.653922e-04
1.578222e-04
1.578238e-04
1.578197e-04
1.604011e-04
1.578201e-04
1.603759e-04
1.578203e-04
1.705522e-04
1.729138e-04
1.704074e-04
1.679717e-04
1.836518e-04
1.862313e-04
1.629073e-04
1.653923e-04
1.628361e-04
1.603283e-04
1.603279e-04
1.628848e-04
1.578229e-04
1.603771e-04
1.578234e-04
1.603778e-04
1.578216e-04
1.604011e-04
1.578208e-04
1.604034e-04
1.655423e-04
1.679727e-04
1.628854e-04
1.629590e-04
1.653921e-04
1.603277e-04
1.603285e-04
1.578214e-04
1.578212e-04
1.603779e-04
1.578224e-04
1.680428e-04
1.758139e-04
1.704325e-04
1.754942e-04
1.679975e-04
1.836225e-04
1.862351e-04
1.603770e-04
1.578205e-04
1.603786e-04
1.578210e-04
1.578218e-04
1.578212e-04
1.603767e-04
1.578252e-04
1.603282e-04
1.578226e-04
1.653926e-04
1.628355e-04
1.603284e-04
1.628357e-04
1.704070e-04
1.779297e-04
1.778777e-04
1.879569e-04
1.879568e-04
1.853984e-04
1.881028e-04
1.729362e-04
1.578231e-04
1.578226e-04
1.654640e-04
1.834078e-04
1.807314e-04
1.705015e-04
1.679959e-04
1.806075e-04
1.884818e-04
1.887910e-04
1.629080e-04
1.603795e-04
1.603273e-04
1.603292e-04
1.578221e-04
1.578206e-04
1.578211e-04
1.629117e-04
1.653442e-04
1.679237e-04
1.730607e-04
1.680003e-04
1.678994e-04
1.681427e-04
1.782202e-04
1.807550e-04
1.832377e-04
1.854735e-04
1.855433e-04
1.856181e-04
1.884000e-04
1.862255e-04
1.783291e-04
1.757851e-04
1.862239e-04
1.862209e-04
1.731570e-04
1.705043e-04
1.781515e-04
1.756658e-04
1.861519e-04
1.860789e-04
1.703597e-04
1.603265e-04
1.604005e-04
1.604040e-04
1.628832e-04
1.578213e-04
1.629074e-04
1.653453e-04
1.654135e-04
1.731304e-04
1.654151e-04
1.680449e-04
1.679002e-04
1.704798e-04
1.704299e-04
1.757400e-04
1.629084e-04
1.604012e-04
1.578207e-04
1.578221e-04
1.604013e-04
1.730864e-04
1.856971e-04
1.857649e-04
1.857637e-04
1.653448e-04
1.603313e-04
1.628368e-04
1.704782e-04
1.706991e-04
1.835734e-04
1.732385e-04
1.753728e-04
1.629572e-04
1.654646e-04
1.628353e-04
1.604005e-04
1.578209e-04
1.578202e-04
1.653906e-04
1.680744e-04
1.732832e-04
1.629812e-04
1.730626e-04
1.706480e-04
1.732132e-04
1.857788e-04
1.806792e-04
1.603787e-04
1.578198e-04
1.654159e-04
1.603309e-04
1.603300e-04
1.603996e-04
1.705542e-04
1.704315e-04
1.603758e-04
1.578209e-04
1.603294e-04
1.629575e-04
1.628353e-04
1.629094e-04
1.862313e-04
1.733134e-04
1.779521e-04
1.603763e-04
1.603274e-04
1.654645e-04
1.629811e-04
1.604000e-04
1.603772e-04
1.578209e-04
1.603311e-04
1.679967e-04
1.729880e-04
1.707266e-04
1.679722e-04
1.578236e-04
1.855467e-04
1.857016e-04
1.653429e-04
1.654679e-04
1.678989e-04
1.680475e-04
1.655360e-04
1.628857e-04
1.603300e-04
1.603287e-04
1.578222e-04
1.603775e-04
1.578230e-04
1.603276e-04
1.603293e-04
1.578214e-04
1.862369e-04
1.861587e-04
1.860831e-04
1.861624e-04
1.887371e-04
1.862299e-04
1.861553e-04
1.861601e-04
1.862313e-04
1.888127e-04
1.861611e-04
1.888063e-04
1.862316e-04
1.887076e-04
1.862320e-04
1.862370e-04
1.862343e-04
1.887898e-04
1.862308e-04
1.887146e-04
1.861561e-04
1.809949e-04
1.861555e-04
1.887881e-04
1.888129e-04
1.862353e-04
1.888126e-04
1.862326e-04
1.862344e-04
1.862356e-04
1.862319e-04
1.862333e-04
1.862376e-04
1.862324e-04
1.859322e-04
1.862376e-04
1.862354e-04
1.836227e-04
1.784829e-04
1.810671e-04
1.862321e-04
1.862334e-04
1.861574e-04
1.861560e-04
1.887913e-04
1.861565e-04
1.859993e-04
1.758755e-04
1.857792e-04
1.862329e-04
1.887897e-04
1.862321e-04
1.834985e-04
1.886377e-04
1.888131e-04
1.862350e-04
1.860823e-04
1.861532e-04
1.862317e-04
1.836487e-04
1.862325e-04
1.862330e-04
1.862321e-04
1.862331e-04
1.862331e-04
1.783820e-04
1.807612e-04
1.680711e-04
1.629822e-04
1.655676e-04
1.654174e-04
1.655645e-04
1.629087e-04
1.705803e-04
1.730086e-04
1.654879e-04
1.603279e-04
1.629087e-04
1.757342e-04
1.807999e-04
1.860520e-04
1.703564e-04
1.603292e-04
1.603298e-04
1.680711e-04
1.654667e-04
1.578216e-04
1.604011e-04
1.578225e-04
1.578210e-04
1.629073e-04
1.604019e-04
1.604013e-04
1.604030e-04
1.654656e-04
1.629571e-04
1.862333e-04
1.784817e-04
1.755210e-04
1.706528e-04
1.654153e-04
1.654920e-04
1.654899e-04
1.655659e-04
1.653419e-04
1.754948e-04
1.705544e-04
1.654657e-04
1.679738e-04
1.704790e-04
1.705749e-04
1.705761e-04
1.732325e-04
1.628343e-04
1.578203e-04
1.603317e-04
1.678967e-04
1.654138e-04
1.654658e-04
1.628376e-04
1.629816e-04
1.628373e-04
1.603276e-04
1.629103e-04
1.603311e-04
1.578236e-04
1.629565e-04
1.578207e-04
1.887899e-04
1.862044e-04
1.679943e-04
1.731618e-04
1.654889e-04
1.603788e-04
1.628386e-04
1.628349e-04
1.604010e-04
1.755924e-04
1.805869e-04
1.629867e-04
1.704810e-04
1.705530e-04
1.706268e-04
1.731347e-04
1.654903e-04
1.603293e-04
1.603289e-04
1.653440e-04
1.704321e-04
1.679224e-04
1.653924e-04
1.578222e-04
1.629099e-04
1.628358e-04
1.578220e-04
1.628835e-04
1.603281e-04
1.628845e-04
1.628851e-04
1.629574e-04
1.862316e-04
1.861533e-04
1.680489e-04
1.705047e-04
1.706974e-04
1.629804e-04
1.680446e-04
1.653917e-04
1.578192e-04
1.804381e-04
1.830919e-04
1.629107e-04
1.654634e-04
1.704791e-04
1.679709e-04
1.654881e-04
1.629821e-04
1.604006e-04
1.603770e-04
1.729364e-04
1.754204e-04
1.704296e-04
1.653433e-04
1.578214e-04
1.604005e-04
1.629091e-04
1.654900e-04
1.680477e-04
1.628337e-04
1.653926e-04
1.705526e-04
1.706287e-04
1.862317e-04
1.888106e-04
1.681452e-04
1.707011e-04
1.681207e-04
1.680678e-04
1.654877e-04
1.654868e-04
1.603284e-04
1.778791e-04
1.806065e-04
1.680473e-04
1.729382e-04
1.730836e-04
1.755891e-04
1.832576e-04
1.756647e-04
1.756673e-04
1.757369e-04
1.858354e-04
1.859804e-04
1.859080e-04
1.831600e-04
1.730582e-04
1.729360e-04
1.805311e-04
1.881781e-04
1.832580e-04
1.831657e-04
1.806591e-04
1.858417e-04
1.835603e-04
1.861528e-04
1.861581e-04
1.704784e-04
1.679729e-04
1.629101e-04
1.629864e-04
1.654159e-04
1.679978e-04
1.755655e-04
1.758068e-04
1.758058e-04
1.831606e-04
1.832374e-04
1.805342e-04
1.807282e-04
1.830146e-04
1.806784e-04
1.830411e-04
1.856172e-04
1.856917e-04
1.856685e-04
1.856976e-04
1.883241e-04
1.754416e-04
1.881047e-04
1.857613e-04
1.856889e-04
1.883194e-04
1.881006e-04
1.855209e-04
1.833284e-04
1.779279e-04
1.862342e-04
1.862328e-04
1.629086e-04
1.578206e-04
1.603767e-04
1.654186e-04
1.679985e-04
1.730583e-04
1.782224e-04
1.808004e-04
1.679209e-04
1.730829e-04
1.754957e-04
1.655608e-04
1.654908e-04
1.603271e-04
1.679262e-04
1.678978e-04