# vtk DataFile Version 3.0
Cu single-crystal phase-field data
ASCII
DATASET STRUCTURED_POINTS
DIMENSIONS 32 32 16
ORIGIN 0 0 0
SPACING 5.000000e-07 5.000000e-07 5.000000e-07
POINT_DATA 16384
SCALARS crack float 1
LOOKUP_TABLE default
9.441194e-05
9.441206e-05
9.433884e-05
8.668519e-05
8.667209e-05
8.667335e-05
8.668465e-05
8.667844e-05
8.667305e-05
8.668585e-05
9.441203e-05
9.441194e-05
8.667708e-05
8.667297e-05
9.441206e-05
8.667219e-05
8.667638e-05
8.667246e-05
8.669693e-05
8.669107e-05
9.441205e-05
9.434085e-05
9.441206e-05
9.441206e-05
9.433820e-05
9.433842e-05
9.441194e-05
9.433730e-05
8.667293e-05
8.666637e-05
8.667569e-05
8.668276e-05
9.441203e-05
9.411380e-05
7.893031e-05
8.643842e-05
8.666446e-05
8.666478e-05
8.644592e-05
7.892487e-05
8.644519e-05
9.411527e-05
8.644815e-05
8.659130e-05
8.644485e-05
9.433989e-05
9.441194e-05
9.434243e-05
8.645215e-05
8.669478e-05
7.894808e-05
8.668697e-05
8.668135e-05
8.666728e-05
9.434037e-05
9.411274e-05
7.892502e-05
9.418298e-05
9.418493e-05
9.411063e-05
8.644793e-05
9.411369e-05
9.441203e-05
8.668674e-05
8.666572e-05
8.665587e-05
7.891824e-05
7.893076e-05
9.411547e-05
8.644200e-05
7.891629e-05
8.645078e-05
8.667208e-05
9.441194e-05
9.433888e-05
8.667202e-05
8.667113e-05
8.665940e-05
8.659458e-05
7.893026e-05
8.659042e-05
8.666689e-05
8.667703e-05
9.441204e-05
8.644775e-05
8.668055e-05
8.666700e-05
8.666750e-05
9.433715e-05
9.441204e-05
9.418293e-05
8.645210e-05
8.666087e-05
9.440243e-05
9.434026e-05
9.441206e-05
8.667099e-05
8.666994e-05
8.666316e-05
9.434245e-05
9.441194e-05
9.434124e-05
8.666989e-05
8.666810e-05
8.668793e-05
9.432849e-05
9.433775e-05
8.668302e-05
8.659464e-05
8.666047e-05
8.667557e-05
9.434104e-05
9.441194e-05
9.410532e-05
8.647003e-05
9.410683e-05
7.891778e-05
8.667097e-05
8.666867e-05
7.892115e-05
9.434142e-05
9.441204e-05
9.441204e-05
9.433055e-05
8.666285e-05
9.441205e-05
8.666822e-05
9.441206e-05
8.666734e-05
8.666947e-05
8.667168e-05
9.434629e-05
9.433147e-05
8.666598e-05
9.441203e-05
8.667629e-05
9.433833e-05
9.418493e-05
9.441204e-05
8.667216e-05
9.441194e-05
9.441029e-05
8.668044e-05
8.668065e-05
9.410430e-05
9.441203e-05
9.411022e-05
7.891940e-05
9.411110e-05
8.666663e-05
8.667023e-05
8.644504e-05
8.667699e-05
9.434148e-05
8.667303e-05
9.433881e-05
9.433535e-05
9.411265e-05
8.666571e-05
9.434241e-05
8.667773e-05
8.669264e-05
9.434245e-05
9.441194e-05
9.441195e-05
8.666841e-05
9.432578e-05
8.667537e-05
8.666952e-05
9.433979e-05
9.432991e-05
8.645215e-05
9.441016e-05
9.441194e-05
9.411646e-05
8.668445e-05
8.667918e-05
8.667509e-05
8.644350e-05
9.410939e-05
8.644048e-05
8.666830e-05
8.667006e-05
8.667256e-05
8.667735e-05
8.667777e-05
8.658874e-05
9.441194e-05
9.433617e-05
8.644741e-05
8.666826e-05
9.410789e-05
8.666789e-05
8.645413e-05
8.667120e-05
9.434637e-05
8.643904e-05
9.433976e-05
9.441205e-05
9.433694e-05
8.667547e-05
8.667318e-05
9.441203e-05
8.668266e-05
8.666500e-05
9.433059e-05
9.441204e-05
8.669098e-05
7.893226e-05
8.643727e-05
9.410902e-05
9.441203e-05
8.667294e-05
8.644907e-05
8.666355e-05
9.441203e-05
8.666533e-05
8.666015e-05
8.667163e-05
9.433529e-05
8.667965e-05
8.666994e-05
9.434020e-05
9.441206e-05
8.667293e-05
8.667028e-05
8.666509e-05
8.666840e-05
8.644098e-05
9.434257e-05
9.441204e-05
9.441195e-05
8.667663e-05
8.645151e-05
8.668626e-05
9.441203e-05
8.667258e-05
8.668682e-05
8.667105e-05
8.667187e-05
9.434299e-05
9.432957e-05
9.441194e-05
9.411274e-05
8.645038e-05
7.893798e-05
8.667611e-05
9.441203e-05
8.666727e-05
9.434169e-05
8.666962e-05
8.666904e-05
8.645213e-05
8.667333e-05
8.666468e-05
9.434070e-05
8.666927e-05
8.668007e-05
8.667436e-05
8.667746e-05
8.666454e-05
8.668751e-05
9.433468e-05
8.665702e-05
8.667196e-05
9.441203e-05
8.667750e-05
8.666673e-05
9.441205e-05
8.667276e-05
9.441203e-05
9.441204e-05
9.441194e-05
9.434265e-05
9.433690e-05
8.668041e-05
8.667601e-05
8.667301e-05
8.644209e-05
8.666765e-05
9.441195e-05
9.441194e-05
9.434169e-05
8.667654e-05
8.667072e-05
8.667664e-05
8.666941e-05
9.433894e-05
8.666587e-05
8.667082e-05
8.666517e-05
8.666983e-05
9.441194e-05
8.666763e-05
9.441203e-05
8.667453e-05
9.433782e-05
8.667759e-05
9.441194e-05
8.667370e-05
8.666034e-05
8.667385e-05
8.666650e-05
8.667141e-05
9.433988e-05
9.434663e-05
8.666467e-05
9.434134e-05
8.644817e-05
8.667276e-05
9.434188e-05
8.666017e-05
8.667844e-05
9.434404e-05
9.433642e-05
8.667973e-05
8.667795e-05
8.666920e-05
9.433841e-05
9.441206e-05
8.667174e-05
8.666844e-05
8.667321e-05
8.667618e-05
8.667062e-05
8.667371e-05
8.668205e-05
9.433879e-05
9.441194e-05
9.433974e-05
8.667721e-05
9.433866e-05
8.644518e-05
8.667230e-05
8.667903e-05
8.668252e-05
9.434436e-05
9.441194e-05
8.667527e-05
9.441194e-05
9.433403e-05
9.434392e-05
9.441194e-05
9.411314e-05
8.667360e-05
9.433915e-05
9.441194e-05
8.659152e-05
8.645175e-05
8.666730e-05
8.667172e-05
9.433799e-05
8.668135e-05
7.892586e-05
8.667238e-05
9.434118e-05
8.667424e-05
8.644658e-05
8.644126e-05
8.667915e-05
9.433671e-05
8.667643e-05
9.433873e-05
9.441194e-05
9.433697e-05
8.668214e-05
8.668089e-05
8.666418e-05
8.667289e-05
9.434246e-05
8.668314e-05
9.433364e-05
8.667667e-05
8.666725e-05
9.411498e-05
8.665779e-05
8.666741e-05
8.666875e-05
9.433994e-05
8.667391e-05
8.665859e-05
8.666304e-05
9.441203e-05
8.667854e-05
8.668245e-05
8.666901e-05
9.433797e-05
9.441194e-05
9.441195e-05
8.667841e-05
8.667029e-05
9.441204e-05
9.411222e-05
8.666096e-05
8.667234e-05
9.434017e-05
8.667187e-05
8.669731e-05
9.433659e-05
8.666955e-05
7.891928e-05
8.667008e-05
8.668605e-05
7.891547e-05
9.434507e-05
8.668437e-05
9.441204e-05
8.666764e-05
8.667431e-05
7.892106e-05
8.644931e-05
8.644463e-05
8.659314e-05
8.645292e-05
8.667295e-05
8.666941e-05
8.666980e-05
8.667169e-05
8.644696e-05
9.434267e-05
8.666497e-05
8.644447e-05
9.441205e-05
9.441204e-05
9.441204e-05
9.433911e-05
8.667188e-05
8.667416e-05
8.668324e-05
9.441004e-05
9.441194e-05
9.433886e-05
8.667531e-05
7.892755e-05
8.646111e-05
9.434393e-05
9.441194e-05
8.668379e-05
9.441194e-05
9.434052e-05
8.666883e-05
7.892526e-05
7.892731e-05
9.411440e-05
8.666284e-05
9.411532e-05
9.441203e-05
8.667449e-05
8.666776e-05
8.665656e-05
7.892656e-05
7.892182e-05
8.666901e-05
8.644008e-05
8.666111e-05
9.433996e-05
8.666960e-05
8.667260e-05
9.441203e-05
8.666973e-05
9.433473e-05
9.441194e-05
9.441014e-05
8.667617e-05
8.667096e-05
8.665801e-05
8.667353e-05
8.666309e-05
9.411402e-05
8.644655e-05
9.433878e-05
7.892120e-05
8.644091e-05
8.666284e-05
9.411530e-05
9.441194e-05
9.411339e-05
8.644469e-05
8.667000e-05
8.667586e-05
8.666856e-05
7.893825e-05
7.891854e-05
7.892658e-05
8.645512e-05
8.667459e-05
7.891807e-05
9.434083e-05
8.644113e-05
9.411440e-05
9.441204e-05
8.666657e-05
8.667638e-05
9.441195e-05
8.668576e-05
8.666430e-05
8.667227e-05
8.668235e-05
9.434063e-05
8.667304e-05
9.441203e-05
8.667930e-05
8.667102e-05
8.667891e-05
7.892496e-05
8.666104e-05
9.441194e-05
9.411431e-05
8.666284e-05
8.644480e-05
8.667415e-05
8.666793e-05
9.434172e-05
8.668553e-05
8.668974e-05
7.892060e-05
8.658980e-05
8.645330e-05
7.891899e-05
8.667295e-05
9.441195e-05
8.666965e-05
8.667058e-05
8.667334e-05
8.667812e-05
8.667419e-05
8.667746e-05
8.644407e-05
8.668873e-05
9.441020e-05
9.441194e-05
9.434108e-05
8.666932e-05
8.667489e-05
9.441194e-05
8.666924e-05
9.433955e-05
9.441194e-05
9.441019e-05
8.667884e-05
7.892620e-05
8.666973e-05
8.644298e-05
8.668669e-05
9.441206e-05
9.434310e-05
8.667209e-05
9.411712e-05
7.892463e-05
8.659488e-05
8.667471e-05
8.667285e-05
8.666967e-05
8.667224e-05
8.666385e-05
8.668154e-05
8.667782e-05
8.667358e-05
8.666885e-05
9.418492e-05
9.441015e-05
9.441194e-05
9.441011e-05
7.891936e-05
8.667268e-05
8.667238e-05
8.667141e-05
8.667079e-05
7.892444e-05
8.659476e-05
8.666871e-05
8.668734e-05
8.667112e-05
9.434491e-05
7.892168e-05
8.669619e-05
9.434008e-05
8.666531e-05
9.441204e-05
9.441204e-05
9.411404e-05
8.667547e-05
9.434440e-05
8.666934e-05
8.667155e-05
7.892210e-05
8.645046e-05
9.441203e-05
8.667723e-05
7.892490e-05
8.667824e-05
9.441195e-05
9.441194e-05
9.441020e-05
8.644356e-05
8.644093e-05
8.667215e-05
8.667303e-05
8.666844e-05
8.668019e-05
8.667809e-05
8.668176e-05
9.441194e-05
8.667836e-05
9.434092e-05
9.441194e-05
9.411608e-05
8.666833e-05
8.667124e-05
8.666748e-05
9.411265e-05
9.441203e-05
9.411412e-05
9.434143e-05
9.441194e-05
9.434146e-05
8.666680e-05
8.667397e-05
8.666494e-05
8.667830e-05
8.645045e-05
8.669452e-05
8.666472e-05
8.667003e-05
8.659119e-05
9.418492e-05
8.667396e-05
8.644739e-05
8.644193e-05
7.891897e-05
8.665898e-05
8.666760e-05
8.668422e-05
8.667767e-05
8.666908e-05
8.667699e-05
8.667485e-05
9.434197e-05
8.666705e-05
8.666678e-05
8.667873e-05
8.667119e-05
8.668852e-05
9.434022e-05
9.434168e-05
8.667122e-05
9.441195e-05
8.669544e-05
9.441194e-05
8.666851e-05
8.668117e-05
9.441194e-05
8.667570e-05
8.667028e-05
9.441194e-05
8.666928e-05
8.644118e-05
7.893377e-05
8.645064e-05
7.892425e-05
8.644848e-05
7.892855e-05
7.891556e-05
8.644520e-05
8.667269e-05
8.667078e-05
8.666954e-05
7.892142e-05
7.893217e-05
8.666838e-05
8.666823e-05
8.667536e-05
8.667136e-05
8.667501e-05
7.892451e-05
8.659316e-05
9.441194e-05
9.434046e-05
8.667665e-05
8.667389e-05
8.666489e-05
8.645508e-05
8.668646e-05
8.667484e-05
8.666628e-05
9.433814e-05
9.432524e-05
8.643999e-05
8.667112e-05
7.892550e-05
9.434176e-05
8.667577e-05
8.667426e-05
8.667615e-05
8.665621e-05
8.667215e-05
8.667672e-05
8.668195e-05
8.667751e-05
7.892227e-05
8.645555e-05
8.667638e-05
9.441203e-05
9.441194e-05
8.667331e-05
8.644795e-05
8.665729e-05
8.667937e-05
9.434312e-05
8.668529e-05
8.668221e-05
8.667017e-05
9.441194e-05
8.667272e-05
8.644519e-05
8.668587e-05
9.434444e-05
9.441204e-05
9.418493e-05
8.658172e-05
7.893166e-05
8.658924e-05
9.441194e-05
9.441016e-05
8.644540e-05
8.644347e-05
8.667097e-05
8.667092e-05
8.667011e-05
8.667126e-05
8.667351e-05
8.666766e-05
8.643926e-05
8.645543e-05
8.666641e-05
8.668050e-05
8.666866e-05
8.666856e-05
9.441203e-05
8.667589e-05
8.667016e-05
8.667525e-05
8.668066e-05
7.892133e-05
8.666802e-05
7.892118e-05
8.666516e-05
8.667671e-05
8.666891e-05
9.433913e-05
9.433418e-05
7.892113e-05
9.433278e-05
8.667689e-05
9.441016e-05
9.441203e-05
9.411707e-05
8.666705e-05
8.667792e-05
9.441195e-05
8.667582e-05
8.667530e-05
8.666898e-05
9.411356e-05
9.441203e-05
8.666568e-05
9.433945e-05
8.667099e-05
8.667172e-05
8.666863e-05
8.666754e-05
8.645190e-05
8.667314e-05
8.666783e-05
8.667200e-05
8.666674e-05
8.666821e-05
8.666632e-05
8.667381e-05
8.668275e-05
8.646384e-05
8.667533e-05
8.667048e-05
9.433597e-05
9.441194e-05
9.433634e-05
9.434027e-05
9.433980e-05
8.668670e-05
8.667066e-05
9.434023e-05
9.441194e-05
9.433728e-05
8.666913e-05
9.433956e-05
9.441194e-05
9.433065e-05
9.434291e-05
9.441194e-05
9.441206e-05
8.667423e-05
8.666186e-05
8.667124e-05
8.667141e-05
8.666732e-05
8.667208e-05
8.666701e-05
9.441194e-05
8.667546e-05
8.667174e-05
8.667150e-05
9.441194e-05
8.666957e-05
8.668781e-05
8.667652e-05
9.432938e-05
9.433700e-05
9.433169e-05
8.644359e-05
8.659172e-05
8.667486e-05
8.644579e-05
8.667166e-05
9.433907e-05
8.667659e-05
9.441203e-05
9.434246e-05
8.647177e-05
8.667481e-05
8.667941e-05
9.433447e-05
9.441206e-05
8.667246e-05
8.666939e-05
9.441194e-05
8.667086e-05
8.666784e-05
8.666967e-05
8.666817e-05
8.667315e-05
8.667783e-05
8.668122e-05
8.667322e-05
8.667057e-05
8.667668e-05
8.667077e-05
9.434041e-05
9.441194e-05
8.658966e-05
8.645338e-05
9.411711e-05
8.667207e-05
8.667430e-05
9.411352e-05
8.666125e-05
8.667525e-05
8.668519e-05
9.433448e-05
9.441204e-05
9.441038e-05
9.433810e-05
9.441195e-05
9.441195e-05
9.441195e-05
9.434023e-05
8.666519e-05
8.667946e-05
8.667237e-05
8.668301e-05
9.434122e-05
8.667526e-05
8.666784e-05
8.667008e-05
8.667027e-05
8.667360e-05
8.667385e-05
8.668066e-05
8.665958e-05
8.644929e-05
9.432824e-05
9.441204e-05
8.666850e-05
9.433867e-05
8.666455e-05
9.434152e-05
9.441194e-05
9.434134e-05
9.434162e-05
8.667579e-05
8.645012e-05
9.441016e-05
9.441195e-05
9.434428e-05
8.666784e-05
8.667197e-05
9.433731e-05
9.441206e-05
9.434252e-05
8.668320e-05
8.643921e-05
8.659209e-05
9.441194e-05
9.433823e-05
8.667037e-05
8.666969e-05
8.666998e-05
8.666772e-05
9.441195e-05
8.666645e-05
9.441194e-05
8.666829e-05
8.667436e-05
8.667207e-05
9.433702e-05
9.441194e-05
9.434143e-05
8.667250e-05
9.433578e-05
9.434085e-05
9.441194e-05
9.434027e-05
8.667498e-05
8.667828e-05
9.434535e-05
9.411551e-05
9.432647e-05
9.441194e-05
9.441205e-05
9.434198e-05
8.667501e-05
8.666846e-05
8.666589e-05
8.665924e-05
9.433676e-05
8.667389e-05
8.666514e-05
8.667650e-05
8.667050e-05
9.433819e-05
9.441194e-05
9.441204e-05
9.441203e-05
8.667140e-05
8.644590e-05
8.666268e-05
8.666666e-05
9.441195e-05
8.667051e-05
8.645206e-05
9.433618e-05
8.669149e-05
9.411398e-05
8.644184e-05
8.667250e-05
8.668364e-05
9.411817e-05
8.666284e-05
9.434007e-05
9.434082e-05
8.667728e-05
8.667754e-05
8.643960e-05
8.644579e-05
9.441204e-05
8.667554e-05
8.666315e-05
8.668374e-05
8.667117e-05
9.441194e-05
8.669222e-05
9.441204e-05
9.441009e-05
9.441204e-05
9.411182e-05
8.667550e-05
8.667992e-05
9.434172e-05
8.667047e-05
8.667383e-05
8.666717e-05
8.658633e-05
9.441203e-05
8.658731e-05
8.666284e-05
8.667014e-05
9.441203e-05
8.667092e-05
8.666913e-05
9.410857e-05
8.644628e-05
8.668458e-05
8.668589e-05
8.669050e-05
8.667096e-05
8.667606e-05
8.644576e-05
8.667237e-05
8.667521e-05
8.667001e-05
8.666969e-05
8.667263e-05
8.667512e-05
8.667669e-05
9.434158e-05
9.441203e-05
9.434239e-05
8.667680e-05
9.434052e-05
9.441206e-05
8.659277e-05
8.667222e-05
8.667028e-05
8.667551e-05
9.441205e-05
8.668891e-05
8.669030e-05
8.667736e-05
8.667377e-05
8.667200e-05
8.667914e-05
8.669559e-05
8.667747e-05
8.667848e-05
8.667322e-05
9.441203e-05
9.411160e-05
8.644696e-05
8.667437e-05
8.644522e-05
7.892412e-05
7.892621e-05
7.891900e-05
8.644474e-05
8.667379e-05
9.441204e-05
9.441194e-05
9.434255e-05
9.434474e-05
9.441194e-05
9.434484e-05
8.666716e-05
8.668474e-05
8.669253e-05
9.410985e-05
9.441194e-05
9.411087e-05
9.434331e-05
9.411402e-05
8.644112e-05
8.668104e-05
9.433716e-05
8.667215e-05
8.667507e-05
8.667014e-05
9.441194e-05
8.668438e-05
9.441194e-05
9.432634e-05
8.644523e-05
7.891849e-05
8.644304e-05
8.644452e-05
8.666637e-05
8.644891e-05
8.644544e-05
9.418308e-05
9.411512e-05
9.418317e-05
8.665948e-05
8.667650e-05
9.440066e-05
8.666695e-05
8.666710e-05
7.892980e-05
7.892371e-05
9.431824e-05
9.432767e-05
9.433049e-05
7.892003e-05
8.644398e-05
8.644075e-05
8.666376e-05
8.659008e-05
8.645182e-05
8.644637e-05
8.659063e-05
7.892383e-05
9.441195e-05
9.433787e-05
8.644206e-05
7.892413e-05
8.665828e-05
8.666345e-05
8.666081e-05
8.665964e-05
8.644602e-05
9.411324e-05
7.892228e-05
8.666273e-05
7.892204e-05
8.644534e-05
8.644463e-05
9.411240e-05
8.644788e-05
8.666465e-05
8.645387e-05
8.658065e-05
7.892232e-05
9.432939e-05
8.666236e-05
8.644590e-05
8.644652e-05
7.892080e-05
9.411292e-05
9.411168e-05
8.643976e-05
8.644204e-05
9.411119e-05
8.666100e-05
9.441194e-05
8.666888e-05
7.892133e-05
8.666097e-05
8.644878e-05
9.411846e-05
8.644584e-05
9.411515e-05
8.644359e-05
9.432768e-05
9.432896e-05
7.892127e-05
8.644455e-05
9.433235e-05
7.891667e-05
8.644397e-05
8.644002e-05
9.432713e-05
9.432732e-05
8.646022e-05
8.644208e-05
8.644101e-05
7.891948e-05
8.643912e-05
8.644245e-05
8.644541e-05
9.418305e-05
7.892217e-05
8.658749e-05
9.432343e-05
8.644275e-05
7.891948e-05
9.441016e-05
8.666829e-05
7.892347e-05
7.892293e-05
8.644068e-05
9.440944e-05
9.434114e-05
7.891644e-05
8.659582e-05
8.644601e-05
9.433992e-05
8.644742e-05
8.644058e-05
8.644370e-05
8.644402e-05
7.892076e-05
8.644773e-05
9.433101e-05
7.891807e-05
8.644885e-05
9.410929e-05
9.411148e-05
7.892233e-05
7.892152e-05
8.644249e-05
8.644326e-05
8.643869e-05
9.432760e-05
8.665907e-05
8.644548e-05
9.433798e-05
8.644076e-05
8.666842e-05
8.667284e-05
8.658412e-05
8.643711e-05
8.666112e-05
7.892044e-05
9.433302e-05
9.434393e-05
7.891607e-05
7.892331e-05
8.665883e-05
9.411507e-05
8.666074e-05
8.665911e-05
9.433537e-05
9.411533e-05
8.665876e-05
7.892231e-05
8.658922e-05
7.892258e-05
8.645474e-05
8.665865e-05
7.892386e-05
8.644216e-05
8.659291e-05
8.644098e-05
8.665777e-05
9.411387e-05
9.432773e-05
8.665690e-05
8.644503e-05
8.666300e-05
8.666538e-05
8.644880e-05
8.665898e-05
8.644092e-05
8.666656e-05
9.411715e-05
8.643878e-05
9.410874e-05
9.433345e-05
7.891699e-05
9.433501e-05
7.892655e-05
9.418307e-05
9.410955e-05
9.411400e-05
7.892068e-05
9.433045e-05
8.666013e-05
8.644302e-05
9.433512e-05
7.892055e-05
8.659460e-05
8.665702e-05
9.433206e-05
9.411710e-05
9.433546e-05
8.644364e-05
8.644526e-05
7.892199e-05
9.410973e-05
9.433084e-05
7.891901e-05
9.434012e-05
8.666963e-05
8.644184e-05
8.659063e-05
8.665756e-05
7.892244e-05
8.665697e-05
9.418313e-05
9.432976e-05
9.434088e-05
9.433125e-05
9.440073e-05
7.892678e-05
9.418328e-05
8.644340e-05
8.644464e-05
9.433354e-05
7.891723e-05
8.665572e-05
9.432771e-05
9.434462e-05
8.665831e-05
9.432768e-05
9.434579e-05
9.411600e-05
9.418322e-05
8.644004e-05
8.666163e-05
8.666257e-05
8.666070e-05
8.659692e-05
8.644235e-05
8.667112e-05
8.667521e-05
9.412013e-05
8.644104e-05
8.665842e-05
9.433257e-05
8.644550e-05
9.433577e-05
9.432965e-05
9.411474e-05
7.892110e-05
9.440051e-05
9.440076e-05
9.411164e-05
8.645177e-05
9.411608e-05
9.411281e-05
8.658872e-05
8.666297e-05
8.644010e-05
8.643896e-05
8.644146e-05
8.644169e-05
8.665861e-05
8.666120e-05
7.892041e-05
8.666114e-05
8.644326e-05
7.892806e-05
8.643874e-05
7.891720e-05
8.667068e-05
8.645034e-05
8.666710e-05
8.644612e-05
8.644146e-05
9.433140e-05
7.891968e-05
7.892592e-05
7.892659e-05
8.659515e-05
7.892108e-05
8.666101e-05
7.892104e-05
9.433210e-05
9.411512e-05
8.644105e-05
9.411004e-05
9.434492e-05
8.666511e-05
8.666818e-05
8.644973e-05
8.665749e-05
8.665886e-05
8.659223e-05
8.666448e-05
8.644049e-05
9.411855e-05
8.666320e-05
8.666475e-05
8.644040e-05
7.892844e-05
8.644827e-05
8.643913e-05
9.434073e-05
8.667489e-05
7.891989e-05
8.666668e-05
8.665968e-05
9.411261e-05
7.892182e-05
8.659308e-05
7.893013e-05
8.658381e-05
8.644228e-05
9.411290e-05
8.666087e-05
8.666421e-05
7.892243e-05
7.892544e-05
9.411262e-05
8.644644e-05
8.659231e-05
7.892493e-05
8.658869e-05
8.665988e-05
8.665931e-05
9.433292e-05
8.666034e-05
8.644307e-05
8.666504e-05
9.432727e-05
9.432487e-05
8.665753e-05
8.665794e-05
8.658295e-05
8.667828e-05
8.667365e-05
8.666573e-05
8.644271e-05
8.666383e-05
9.432974e-05
8.667507e-05
8.643969e-05
8.659268e-05
7.892221e-05
8.666240e-05
8.644124e-05
9.410767e-05
8.666690e-05
8.644334e-05
7.892091e-05
7.892091e-05
8.644139e-05
7.892214e-05
7.892084e-05
8.644660e-05
8.658964e-05
8.666047e-05
9.411496e-05
8.644397e-05
7.891793e-05
8.644302e-05
8.666009e-05
8.666291e-05
8.666005e-05
9.411234e-05
7.891968e-05
9.441194e-05
8.668107e-05
8.666966e-05
8.665784e-05
8.666107e-05
7.892296e-05
9.411048e-05
9.418312e-05
7.891649e-05
9.433036e-05
9.433045e-05
8.666478e-05
8.666467e-05
8.666625e-05
7.893085e-05
7.892008e-05
8.643906e-05
8.644599e-05
8.666101e-05
8.667225e-05
8.644917e-05
8.644753e-05
8.659521e-05
7.892281e-05
8.659602e-05
8.643948e-05
8.666348e-05
7.892069e-05
7.892328e-05
8.644097e-05
8.644480e-05
7.892124e-05
8.667340e-05
8.667598e-05
8.658621e-05
8.667103e-05
8.665849e-05
9.418305e-05
9.433162e-05
7.892194e-05
9.418482e-05
9.433000e-05
7.892052e-05
9.432948e-05
8.665806e-05
8.644693e-05
7.892068e-05
8.659154e-05
7.892655e-05
8.666385e-05
8.667351e-05
8.665495e-05
8.644080e-05
9.411457e-05
8.644258e-05
8.659284e-05
7.891614e-05
8.665819e-05
9.432549e-05
7.892210e-05
9.411406e-05
9.411239e-05
9.411366e-05
7.892023e-05
9.441194e-05
9.434499e-05
8.644699e-05
8.644267e-05
8.667173e-05
8.644312e-05
8.665692e-05
8.659226e-05
8.643941e-05
9.432953e-05
9.411139e-05
9.411214e-05
8.658598e-05
7.892470e-05
8.666084e-05
7.892214e-05
7.891891e-05
8.666895e-05
8.666076e-05
7.892234e-05
8.645023e-05
9.411166e-05
8.666531e-05
8.643638e-05
9.432856e-05
9.432789e-05
8.644451e-05
8.666395e-05
7.892470e-05
9.418313e-05
8.643930e-05
8.658977e-05
8.667697e-05
8.667905e-05
8.666376e-05
8.666064e-05
8.644120e-05
8.665914e-05
8.659331e-05
8.644197e-05
9.411174e-05
9.418303e-05
8.643979e-05
9.411230e-05
9.432634e-05
9.433672e-05
7.892512e-05
9.410804e-05
8.643918e-05
8.666212e-05
8.658804e-05
7.892312e-05
8.659033e-05
7.891653e-05
9.433126e-05
9.411110e-05
8.644037e-05
8.666558e-05
9.433637e-05
9.411064e-05
9.440945e-05
8.643995e-05
9.433048e-05
7.891596e-05
9.433379e-05
9.432940e-05
8.667637e-05
8.667588e-05
8.666329e-05
9.411878e-05
8.644640e-05
8.666611e-05
9.433675e-05
9.411044e-05
9.432807e-05
9.411503e-05
7.891600e-05
9.432830e-05
9.432752e-05
8.644257e-05
9.411137e-05
8.644471e-05
7.891987e-05
8.659271e-05
8.665787e-05
9.433287e-05
9.433003e-05
7.891840e-05
8.659074e-05
7.892269e-05
8.659189e-05
7.891818e-05
8.666490e-05
9.411289e-05
8.644282e-05
8.644775e-05
9.411051e-05
9.433660e-05
8.644994e-05
9.433575e-05
9.440069e-05
9.411151e-05
9.434239e-05
8.666335e-05
7.891943e-05
8.658863e-05
8.666014e-05
8.666081e-05
8.659493e-05
8.644498e-05
8.665732e-05
9.411327e-05
9.434191e-05
9.411328e-05
8.659519e-05
8.666482e-05
8.665917e-05
8.667134e-05
9.433171e-05
9.432863e-05
8.666409e-05
8.665991e-05
9.433058e-05
9.411147e-05
7.891910e-05
9.411178e-05
8.644621e-05
8.644295e-05
7.895056e-05
8.667621e-05
9.411409e-05
9.440070e-05
9.411213e-05
9.418312e-05
8.666493e-05
7.892142e-05
7.892128e-05
8.644622e-05
8.644154e-05
9.411399e-05
7.892544e-05
8.659202e-05
8.644716e-05
8.659178e-05
9.411339e-05
9.418308e-05
9.433523e-05
8.666548e-05
8.644518e-05
8.665740e-05
8.644569e-05
8.644299e-05
7.891800e-05
8.666126e-05
9.433337e-05
7.892072e-05
9.411329e-05
7.891778e-05
9.411775e-05
8.644036e-05
8.645140e-05
8.667216e-05
8.644296e-05
9.410891e-05
9.418301e-05
8.665926e-05
8.644160e-05
8.666111e-05
7.892735e-05
8.666101e-05
8.665628e-05
8.644635e-05
7.892364e-05
8.644723e-05
8.666425e-05
9.434020e-05
9.411380e-05
9.433536e-05
8.667312e-05
8.666090e-05
8.644097e-05
8.644542e-05
8.666277e-05
8.644083e-05
7.892110e-05
7.892369e-05
7.891606e-05
8.666111e-05
8.644087e-05
8.644811e-05
8.667140e-05
7.891691e-05
7.892139e-05
8.666800e-05
8.644513e-05
8.666901e-05
7.892074e-05
8.665619e-05
8.658698e-05
7.892100e-05
8.644071e-05
8.658910e-05
9.433393e-05
9.411170e-05
7.891985e-05
9.411282e-05
9.411526e-05
7.891824e-05
9.433147e-05
8.644650e-05
9.410662e-05
8.666378e-05
9.433189e-05
8.644222e-05
8.665820e-05
8.644658e-05
8.644211e-05
7.891945e-05
7.892660e-05
8.644002e-05
8.666758e-05
8.667074e-05
8.666255e-05
9.418300e-05
9.410987e-05
8.667162e-05
8.666692e-05
8.667403e-05
8.665911e-05
9.433520e-05
8.644907e-05
8.658791e-05
8.644454e-05
7.892294e-05
8.644222e-05
8.666280e-05
9.433024e-05
8.667124e-05
8.643994e-05
9.411189e-05
8.665998e-05
7.891657e-05
8.644289e-05
8.667389e-05
8.666637e-05
7.892025e-05
7.892017e-05
8.665769e-05
7.891426e-05
7.892051e-05
7.891936e-05
8.644730e-05
8.666685e-05
8.644442e-05
8.666109e-05
9.411345e-05
7.892067e-05
8.644180e-05
8.666518e-05
9.411206e-05
8.666291e-05
8.644602e-05
7.891638e-05
7.892679e-05
8.659017e-05
7.892133e-05
8.659178e-05
8.666034e-05
9.411776e-05
7.891719e-05
7.892031e-05
9.432377e-05
9.411366e-05
8.644372e-05
9.433475e-05
9.432992e-05
8.666627e-05
8.666144e-05
8.665648e-05
7.891956e-05
8.659410e-05
7.891876e-05
7.892212e-05
7.891873e-05
8.644268e-05
9.432374e-05
8.643950e-05
9.411302e-05
8.658931e-05
8.666860e-05
8.659015e-05
7.892256e-05
9.433280e-05
9.433334e-05
8.644510e-05
9.410888e-05
8.659115e-05
9.411314e-05
7.892089e-05
7.891745e-05
8.644373e-05
8.645134e-05
7.892023e-05
8.666958e-05
8.665797e-05
8.666789e-05
8.665917e-05
8.644191e-05
9.433502e-05
8.665844e-05
8.644023e-05
8.659225e-05
7.891984e-05
8.658984e-05
7.892110e-05
9.410668e-05
9.410799e-05
7.891762e-05
8.666093e-05
8.644116e-05
8.665695e-05
8.667045e-05
8.666158e-05
9.411588e-05
8.643894e-05
8.644219e-05
7.892082e-05
9.411205e-05
9.433008e-05
8.644547e-05
8.644052e-05
7.891959e-05
8.659188e-05
8.666433e-05
8.645151e-05
8.666875e-05
8.666065e-05
9.410541e-05
8.643929e-05
9.433080e-05
9.411151e-05
7.892371e-05
7.892831e-05
7.891618e-05
8.666106e-05
7.891719e-05
8.658553e-05
7.891805e-05
9.411215e-05
9.410982e-05
9.411394e-05
8.659008e-05
8.667392e-05
8.666348e-05
8.665855e-05
9.411271e-05
8.644463e-05
8.644258e-05
8.644148e-05
9.411179e-05
7.892564e-05
8.658898e-05
7.892725e-05
8.659114e-05
7.892179e-05
8.666106e-05
7.891949e-05
8.666800e-05
9.434333e-05
9.411257e-05
8.659186e-05
8.659505e-05
9.411084e-05
8.644100e-05
8.644281e-05
7.892136e-05
7.892076e-05
8.659160e-05
7.892432e-05
9.432313e-05
9.440951e-05
8.645116e-05
9.411345e-05
7.892031e-05
9.433547e-05
8.667522e-05
8.658888e-05
7.891863e-05
8.659332e-05
7.891994e-05
7.892244e-05
7.892061e-05
8.658752e-05
7.893273e-05
8.644233e-05
7.892488e-05
9.411311e-05
8.644206e-05
8.644309e-05
8.644338e-05
9.411261e-05
9.411507e-05
7.891889e-05
9.411236e-05
9.411241e-05
8.643788e-05
9.433269e-05
8.665993e-05
7.892627e-05
7.892496e-05
9.432733e-05
9.440069e-05
8.659037e-05
7.892010e-05
7.891571e-05
9.418311e-05
9.433118e-05
9.434238e-05
8.666003e-05
8.659627e-05
8.643941e-05
8.644526e-05
7.892327e-05
7.891882e-05
7.892018e-05
8.667105e-05
8.644675e-05
8.644567e-05
9.432610e-05
8.666665e-05
9.411265e-05
8.665895e-05
9.433512e-05
7.892373e-05
8.659143e-05
8.644675e-05
8.665627e-05
8.666327e-05
9.432877e-05
8.665656e-05
8.644735e-05
8.659816e-05
8.666834e-05
8.665805e-05
8.666114e-05
8.644166e-05
9.433083e-05
8.665740e-05
8.666162e-05
8.666963e-05
8.644924e-05
7.891519e-05
8.665945e-05
8.666918e-05
9.410731e-05
7.892078e-05
8.665884e-05
8.645045e-05
8.643805e-05
9.432661e-05
7.892053e-05
8.659331e-05
9.411347e-05
9.411419e-05
7.892078e-05
8.666104e-05
7.892201e-05
8.666099e-05
7.891917e-05
7.892345e-05
8.666055e-05
8.644604e-05
8.644439e-05
8.666542e-05
8.666199e-05
8.644944e-05
7.892945e-05
8.644680e-05
9.432785e-05
9.432930e-05
8.667487e-05
7.891828e-05
8.644597e-05
9.432854e-05
9.432974e-05
8.644203e-05
8.665918e-05
7.891975e-05
7.891761e-05
9.410766e-05
8.666276e-05
9.434170e-05
8.666273e-05
9.411516e-05
9.440060e-05
9.433996e-05
8.667209e-05
8.666081e-05
8.659400e-05
7.891656e-05
9.418309e-05
8.645007e-05
8.644793e-05
8.665633e-05
9.411792e-05
8.644600e-05
8.658515e-05
7.891986e-05
8.644609e-05
9.432971e-05
8.644231e-05
8.666464e-05
8.667410e-05
8.666377e-05
8.644377e-05
8.658671e-05
7.891791e-05
9.411188e-05
8.666211e-05
8.665780e-05
8.658939e-05
7.891967e-05
8.645107e-05
8.666378e-05
9.411603e-05
9.440052e-05
9.433066e-05
7.892778e-05
8.644676e-05
8.667531e-05
8.644397e-05
9.433959e-05
9.411070e-05
9.432973e-05
9.432642e-05
9.411440e-05
8.644759e-05
7.892164e-05
7.892373e-05
8.659000e-05
7.892615e-05
8.644017e-05
8.644533e-05
7.892135e-05
8.668080e-05
8.667673e-05
8.644895e-05
8.646083e-05
9.441203e-05
8.666386e-05
8.666814e-05
8.645537e-05
8.666911e-05
9.441203e-05
8.645728e-05
9.441203e-05
8.666888e-05
9.411535e-05
8.666983e-05
8.668504e-05
8.667563e-05
9.434134e-05
8.666623e-05
9.411691e-05
8.666897e-05
7.893441e-05
8.666737e-05
9.433692e-05
9.441194e-05
8.667965e-05
9.441194e-05
8.667236e-05
8.667783e-05
8.668113e-05
8.666981e-05
8.667442e-05
8.668472e-05
8.666983e-05
8.644936e-05
8.668538e-05
8.667915e-05
8.659075e-05
7.891963e-05
7.892385e-05
8.667034e-05
8.667332e-05
8.667303e-05
8.666779e-05
9.434666e-05
8.666851e-05
8.666201e-05
8.659479e-05
8.644577e-05
8.667072e-05
9.434232e-05
8.666993e-05
7.892351e-05
9.411274e-05
9.441204e-05
8.667858e-05
8.644753e-05
8.644177e-05
8.666843e-05
7.892001e-05
8.667153e-05
8.667248e-05
8.666955e-05
8.667261e-05
8.667031e-05
9.433813e-05
8.667124e-05
8.666273e-05
8.666560e-05
8.667382e-05
8.644940e-05
8.666461e-05
8.666268e-05
8.666746e-05
8.643888e-05
8.666104e-05
7.891938e-05
7.892302e-05
8.665957e-05
9.433196e-05
8.665675e-05
7.891977e-05
8.644530e-05
8.644721e-05
8.666856e-05
9.433519e-05
7.892172e-05
8.666106e-05
7.892438e-05
7.892003e-05
8.665808e-05
8.666329e-05
8.666173e-05
8.666692e-05
9.433266e-05
9.432890e-05
8.667119e-05
8.667053e-05
8.643945e-05
8.665893e-05
8.666068e-05
8.644736e-05
8.644964e-05
8.666923e-05
8.644035e-05
9.411490e-05
8.659019e-05
8.658610e-05
8.659752e-05
9.411191e-05
8.666107e-05
7.891699e-05
8.666099e-05
7.891718e-05
7.891790e-05
8.645250e-05
8.658158e-05
8.665460e-05
9.433300e-05
8.644926e-05
8.666383e-05
8.644816e-05
7.891858e-05
8.666660e-05
8.645106e-05
7.892782e-05
9.432659e-05
7.891919e-05
9.433927e-05
9.434123e-05
7.891955e-05
8.667315e-05
7.892431e-05
8.659434e-05
8.645199e-05
8.644119e-05
8.666094e-05
8.666740e-05
9.411169e-05
7.892190e-05
9.411053e-05
9.411708e-05
9.432974e-05
9.411336e-05
8.644247e-05
8.644559e-05
8.644442e-05
8.644647e-05
8.666616e-05
8.665911e-05
9.411303e-05
7.892348e-05
8.666618e-05
8.644351e-05
7.892308e-05
8.658689e-05
8.644192e-05
9.411073e-05
9.411200e-05
8.659128e-05
8.667324e-05
8.666776e-05
8.658809e-05
8.644138e-05
9.433282e-05
7.892053e-05
9.433043e-05
9.411110e-05
7.891452e-05
9.411751e-05
9.411322e-05
7.892030e-05
8.658784e-05
9.411214e-05
8.658882e-05
7.892252e-05
7.891677e-05
7.891995e-05
8.658890e-05
8.665758e-05
9.410961e-05
8.665918e-05
8.644420e-05
7.892120e-05
8.665915e-05
8.666366e-05
8.665770e-05
9.433029e-05
8.643768e-05
9.411435e-05
9.432440e-05
9.432727e-05
8.667472e-05
9.441204e-05
7.891980e-05
9.432707e-05
9.433265e-05
9.418309e-05
8.665994e-05
8.665772e-05
8.644292e-05
8.644185e-05
8.665839e-05
9.432998e-05
8.644776e-05
7.891889e-05
7.892169e-05
8.665643e-05
7.892326e-05
8.644440e-05
8.644435e-05
8.644416e-05
8.666092e-05
8.666163e-05
8.659136e-05
9.411165e-05
8.644196e-05
8.666249e-05
9.411602e-05
7.892073e-05
9.433991e-05
9.411527e-05
8.644550e-05
8.667077e-05
8.666597e-05
8.644614e-05
9.432868e-05
9.433315e-05
8.666691e-05
8.666939e-05
8.644484e-05
8.666009e-05
9.432824e-05
8.644339e-05
8.644111e-05
9.411429e-05
9.433639e-05
8.644528e-05
9.433065e-05
9.411263e-05
8.644384e-05
8.644566e-05
8.644408e-05
8.644023e-05
8.659737e-05
8.644772e-05
9.433688e-05
7.891525e-05
9.411404e-05
8.643958e-05
8.644142e-05
9.433150e-05
9.432818e-05
9.411026e-05
9.440056e-05
9.411337e-05
8.667456e-05
8.666820e-05
9.418320e-05
7.891868e-05
8.658797e-05
8.666992e-05
8.644478e-05
9.411128e-05
9.411523e-05
9.432837e-05
8.643901e-05
8.666419e-05
9.411786e-05
8.666239e-05
8.645237e-05
7.891710e-05
8.644586e-05
8.658736e-05