# vtk DataFile Version 3.0
Cu single-crystal phase-field data
ASCII
DATASET STRUCTURED_POINTS
DIMENSIONS 32 32 16
ORIGIN 0 0 0
SPACING 5.000000e-07 5.000000e-07 5.000000e-07
POINT_DATA 16384
SCALARS crack float 1
LOOKUP_TABLE default
3.775982e-04
3.775987e-04
3.775246e-04
3.698705e-04
3.698573e-04
3.698585e-04
3.698698e-04
3.698642e-04
3.698589e-04
3.698717e-04
3.775991e-04
3.775991e-04
3.698628e-04
3.698587e-04
3.775982e-04
3.698576e-04
3.696352e-04
3.698583e-04
3.698824e-04
3.698772e-04
3.775984e-04
3.775281e-04
3.775977e-04
3.775983e-04
3.775244e-04
3.775246e-04
3.775987e-04
3.775237e-04
3.698587e-04
3.698523e-04
3.698611e-04
3.698691e-04
3.775992e-04
3.772722e-04
3.543697e-04
3.618758e-04
3.618760e-04
3.621029e-04
3.616565e-04
3.621113e-04
3.694044e-04
3.766223e-04
3.687255e-04
3.536008e-04
3.687216e-04
3.775258e-04
3.775982e-04
3.775289e-04
3.694111e-04
3.698792e-04
3.621345e-04
3.698717e-04
3.621186e-04
3.698518e-04
3.775270e-04
3.770702e-04
3.543645e-04
3.773590e-04
3.773728e-04
3.772955e-04
3.696329e-04
3.772993e-04
3.775973e-04
3.698729e-04
3.698518e-04
3.698422e-04
3.616514e-04
3.543702e-04
3.618077e-04
3.616524e-04
3.466086e-04
3.694089e-04
3.698592e-04
3.775995e-04
3.775265e-04
3.698579e-04
3.698485e-04
3.695708e-04
3.542468e-04
3.543606e-04
3.695493e-04
3.698521e-04
3.698628e-04
3.775978e-04
3.618851e-04
3.698655e-04
3.698527e-04
3.696255e-04
3.697748e-04
3.773714e-04
3.771421e-04
3.696369e-04
3.698451e-04
3.775880e-04
3.775249e-04
3.775994e-04
3.698574e-04
3.698549e-04
3.698201e-04
3.775280e-04
3.775987e-04
3.775256e-04
3.698542e-04
3.698523e-04
3.698730e-04
3.775058e-04
3.775232e-04
3.698673e-04
3.697796e-04
3.698456e-04
3.696340e-04
3.772986e-04
3.775876e-04
3.772886e-04
3.696546e-04
3.770643e-04
3.618773e-04
3.696285e-04
3.698531e-04
3.618806e-04
3.775269e-04
3.775980e-04
3.775979e-04
3.775157e-04
3.698472e-04
3.775968e-04
3.698529e-04
3.775984e-04
3.698534e-04
3.698443e-04
3.698569e-04
3.773044e-04
3.772794e-04
3.698503e-04
3.775955e-04
3.698606e-04
3.775230e-04
3.771346e-04
3.775972e-04
3.698564e-04
3.775965e-04
3.775954e-04
3.698649e-04
3.698650e-04
3.772874e-04
3.775970e-04
3.772942e-04
3.621058e-04
3.772955e-04
3.698522e-04
3.698545e-04
3.696296e-04
3.698620e-04
3.775269e-04
3.698587e-04
3.775232e-04
3.775210e-04
3.772973e-04
3.698507e-04
3.775286e-04
3.696360e-04
3.698776e-04
3.775280e-04
3.775977e-04
3.773691e-04
3.621058e-04
3.775116e-04
3.698612e-04
3.698542e-04
3.772902e-04
3.775154e-04
3.696373e-04
3.775944e-04
3.775968e-04
3.773009e-04
3.698692e-04
3.698640e-04
3.698599e-04
3.696187e-04
3.770677e-04
3.691713e-04
3.698435e-04
3.698550e-04
3.698569e-04
3.698631e-04
3.698634e-04
3.697739e-04
3.775981e-04
3.775220e-04
3.696327e-04
3.698534e-04
3.772946e-04
3.698536e-04
3.696391e-04
3.698565e-04
3.775315e-04
3.693975e-04
3.695489e-04
3.698502e-04
3.775231e-04
3.698611e-04
3.698586e-04
3.775987e-04
3.698681e-04
3.698505e-04
3.775168e-04
3.775990e-04
3.691948e-04
3.536910e-04
3.684869e-04
3.686404e-04
3.691688e-04
3.536824e-04
3.693684e-04
3.698493e-04
3.775884e-04
3.698126e-04
3.696083e-04
3.698472e-04
3.772935e-04
3.696381e-04
3.698552e-04
3.775265e-04
3.775988e-04
3.698596e-04
3.698551e-04
3.698499e-04
3.698529e-04
3.696267e-04
3.770740e-04
3.769177e-04
3.769172e-04
3.691818e-04
3.682744e-04
3.691910e-04
3.775995e-04
3.698577e-04
3.698723e-04
3.698556e-04
3.620996e-04
3.773013e-04
3.695399e-04
3.775976e-04
3.695511e-04
3.618877e-04
3.466303e-04
3.694085e-04
3.775991e-04
3.698525e-04
3.775270e-04
3.698549e-04
3.696279e-04
3.694016e-04
3.621106e-04
3.621023e-04
3.775285e-04
3.698558e-04
3.698646e-04
3.698594e-04
3.698624e-04
3.698404e-04
3.696463e-04
3.775210e-04
3.698426e-04
3.698571e-04
3.775985e-04
3.698633e-04
3.698534e-04
3.775985e-04
3.698574e-04
3.775966e-04
3.775965e-04
3.775959e-04
3.773004e-04
3.775215e-04
3.698647e-04
3.698604e-04
3.698581e-04
3.696267e-04
3.698528e-04
3.775967e-04
3.775973e-04
3.775268e-04
3.698615e-04
3.698553e-04
3.698624e-04
3.698554e-04
3.775272e-04
3.698511e-04
3.698552e-04
3.698495e-04
3.698547e-04
3.773700e-04
3.696262e-04
3.775973e-04
3.698598e-04
3.775225e-04
3.698634e-04
3.775981e-04
3.698510e-04
3.696185e-04
3.698591e-04
3.698508e-04
3.698558e-04
3.775258e-04
3.775318e-04
3.698489e-04
3.775263e-04
3.696330e-04
3.698572e-04
3.697796e-04
3.698450e-04
3.698630e-04
3.775297e-04
3.775128e-04
3.696382e-04
3.621155e-04
3.696274e-04
3.775247e-04
3.775991e-04
3.698581e-04
3.698531e-04
3.698580e-04
3.698606e-04
3.698467e-04
3.698495e-04
3.698588e-04
3.775244e-04
3.775982e-04
3.775248e-04
3.698624e-04
3.772979e-04
3.696309e-04
3.698566e-04
3.698634e-04
3.698668e-04
3.775295e-04
3.775966e-04
3.698595e-04
3.775958e-04
3.775192e-04
3.775282e-04
3.775973e-04
3.772972e-04
3.698579e-04
3.775240e-04
3.775980e-04
3.620289e-04
3.618797e-04
3.621051e-04
3.696296e-04
3.772987e-04
3.698671e-04
3.621123e-04
3.698569e-04
3.775272e-04
3.698588e-04
3.694045e-04
3.693811e-04
3.698649e-04
3.775235e-04
3.698617e-04
3.775235e-04
3.771443e-04
3.772945e-04
3.698665e-04
3.698651e-04
3.698484e-04
3.698576e-04
3.775269e-04
3.698675e-04
3.775188e-04
3.698610e-04
3.698520e-04
3.770740e-04
3.698430e-04
3.698520e-04
3.698536e-04
3.775160e-04
3.618847e-04
3.618500e-04
3.618657e-04
3.773716e-04
3.696387e-04
3.698681e-04
3.698452e-04
3.775230e-04
3.775971e-04
3.775967e-04
3.698629e-04
3.696196e-04
3.775998e-04
3.772989e-04
3.696188e-04
3.698574e-04
3.772903e-04
3.698570e-04
3.698821e-04
3.775225e-04
3.698547e-04
3.621057e-04
3.698566e-04
3.698713e-04
3.621019e-04
3.775309e-04
3.698700e-04
3.775978e-04
3.698530e-04
3.698589e-04
3.621075e-04
3.618867e-04
3.539089e-04
3.611234e-04
3.616655e-04
3.621110e-04
3.696297e-04
3.698555e-04
3.696295e-04
3.694045e-04
3.775282e-04
3.698492e-04
3.696291e-04
3.773714e-04
3.775980e-04
3.618763e-04
3.618026e-04
3.543527e-04
3.687237e-04
3.698686e-04
3.775945e-04
3.775973e-04
3.775236e-04
3.698603e-04
3.621145e-04
3.696463e-04
3.775297e-04
3.775968e-04
3.698681e-04
3.775980e-04
3.775266e-04
3.698541e-04
3.621117e-04
3.543667e-04
3.540582e-04
3.611928e-04
3.693282e-04
3.698518e-04
3.698609e-04
3.698559e-04
3.693806e-04
3.466189e-04
3.543612e-04
3.698558e-04
3.618774e-04
3.693842e-04
3.775281e-04
3.543606e-04
3.621104e-04
3.773700e-04
3.616531e-04
3.775005e-04
3.775977e-04
3.775950e-04
3.698521e-04
3.698462e-04
3.698434e-04
3.698584e-04
3.698397e-04
3.772995e-04
3.696330e-04
3.775240e-04
3.621076e-04
3.696256e-04
3.698479e-04
3.695524e-04
3.621025e-04
3.611218e-04
3.616477e-04
3.621084e-04
3.698632e-04
3.698579e-04
3.388834e-04
3.466109e-04
3.466189e-04
3.541471e-04
3.543652e-04
3.614251e-04
3.775290e-04
3.616524e-04
3.770723e-04
3.775980e-04
3.698510e-04
3.698619e-04
3.771441e-04
3.694076e-04
3.698493e-04
3.698567e-04
3.698666e-04
3.775251e-04
3.698579e-04
3.771435e-04
3.698362e-04
3.698569e-04
3.698643e-04
3.621114e-04
3.698454e-04
3.775987e-04
3.695525e-04
3.466060e-04
3.693766e-04
3.696354e-04
3.698577e-04
3.775302e-04
3.698733e-04
3.698748e-04
3.543600e-04
3.620282e-04
3.618920e-04
3.621054e-04
3.698604e-04
3.776001e-04
3.698270e-04
3.698565e-04
3.698581e-04
3.698637e-04
3.618856e-04
3.621056e-04
3.696288e-04
3.698732e-04
3.775949e-04
3.775970e-04
3.775256e-04
3.388653e-04
3.684974e-04
3.775967e-04
3.698537e-04
3.775235e-04
3.775970e-04
3.775950e-04
3.698635e-04
3.621126e-04
3.698562e-04
3.691752e-04
3.698746e-04
3.776022e-04
3.775276e-04
3.698579e-04
3.773017e-04
3.621111e-04
3.697795e-04
3.698607e-04
3.698588e-04
3.698552e-04
3.698591e-04
3.698414e-04
3.698670e-04
3.698638e-04
3.541372e-04
3.620967e-04
3.773710e-04
3.775957e-04
3.775987e-04
3.775960e-04
3.311173e-04
3.233742e-04
3.687222e-04
3.698580e-04
3.698559e-04
3.621111e-04
3.697796e-04
3.698550e-04
3.698725e-04
3.698567e-04
3.775321e-04
3.543611e-04
3.698823e-04
3.775268e-04
3.698507e-04
3.775966e-04
3.775983e-04
3.772989e-04
3.698600e-04
3.775291e-04
3.698555e-04
3.698566e-04
3.621093e-04
3.694096e-04
3.775993e-04
3.698625e-04
3.541374e-04
3.698638e-04
3.775988e-04
3.775998e-04
3.775975e-04
3.308924e-04
3.231425e-04
3.233737e-04
3.684964e-04
3.698552e-04
3.698658e-04
3.698635e-04
3.698666e-04
3.775967e-04
3.698632e-04
3.775253e-04
3.775988e-04
3.695527e-04
3.698548e-04
3.698578e-04
3.698529e-04
3.772981e-04
3.698494e-04
3.772991e-04
3.775263e-04
3.775972e-04
3.775268e-04
3.698517e-04
3.698598e-04
3.698419e-04
3.698634e-04
3.696370e-04
3.616802e-04
3.538934e-04
3.698564e-04
3.697792e-04
3.696236e-04
3.233757e-04
3.231490e-04
3.231435e-04
3.156223e-04
3.695708e-04
3.698557e-04
3.698693e-04
3.698630e-04
3.698535e-04
3.698621e-04
3.698603e-04
3.775296e-04
3.693996e-04
3.698536e-04
3.698658e-04
3.698564e-04
3.698734e-04
3.697782e-04
3.775274e-04
3.698561e-04
3.775973e-04
3.698807e-04
3.775982e-04
3.698546e-04
3.698667e-04
3.775992e-04
3.698619e-04
3.696292e-04
3.771165e-04
3.696296e-04
3.696276e-04
3.543734e-04
3.231528e-04
3.156276e-04
3.231507e-04
3.231523e-04
3.618376e-04
3.696341e-04
3.698596e-04
3.698576e-04
3.698573e-04
3.621086e-04
3.466245e-04
3.616533e-04
3.621079e-04
3.698624e-04
3.698590e-04
3.698602e-04
3.621110e-04
3.620305e-04
3.775988e-04
3.775263e-04
3.698611e-04
3.698587e-04
3.698503e-04
3.696406e-04
3.698721e-04
3.698519e-04
3.698426e-04
3.775260e-04
3.774928e-04
3.538844e-04
3.543526e-04
3.231492e-04
3.538315e-04
3.534592e-04
3.684977e-04
3.620660e-04
3.698325e-04
3.698588e-04
3.698619e-04
3.698682e-04
3.698634e-04
3.621098e-04
3.463988e-04
3.539144e-04
3.698535e-04
3.776006e-04
3.698609e-04
3.696337e-04
3.696151e-04
3.621172e-04
3.775288e-04
3.698706e-04
3.698665e-04
3.698555e-04
3.775979e-04
3.698581e-04
3.696298e-04
3.698718e-04
3.775302e-04
3.775997e-04
3.771458e-04
3.615658e-04
3.386404e-04
3.387758e-04
3.696148e-04
3.773614e-04
3.696312e-04
3.618813e-04
3.698561e-04
3.698567e-04
3.698554e-04
3.698572e-04
3.698604e-04
3.698550e-04
3.463825e-04
3.463898e-04
3.543571e-04
3.698690e-04
3.698547e-04
3.698537e-04
3.775974e-04
3.696335e-04
3.698544e-04
3.698611e-04
3.698649e-04
3.621078e-04
3.698526e-04
3.621076e-04
3.698499e-04
3.698630e-04
3.698540e-04
3.775273e-04
3.772933e-04
3.541241e-04
3.697617e-04
3.621057e-04
3.775861e-04
3.775895e-04
3.773021e-04
3.696247e-04
3.698627e-04
3.775975e-04
3.698604e-04
3.698601e-04
3.698543e-04
3.773002e-04
3.618756e-04
3.620945e-04
3.772998e-04
3.698586e-04
3.698577e-04
3.698533e-04
3.698428e-04
3.618892e-04
3.698574e-04
3.698528e-04
3.698563e-04
3.698516e-04
3.698530e-04
3.698512e-04
3.698586e-04
3.698674e-04
3.696487e-04
3.698601e-04
3.698456e-04
3.775117e-04
3.775876e-04
3.775112e-04
3.775171e-04
3.775251e-04
3.698713e-04
3.698552e-04
3.775245e-04
3.775969e-04
3.775210e-04
3.698536e-04
3.775241e-04
3.775977e-04
3.772701e-04
3.775196e-04
3.775982e-04
3.775987e-04
3.696331e-04
3.698464e-04
3.698556e-04
3.698559e-04
3.698516e-04
3.698563e-04
3.698515e-04
3.775966e-04
3.698600e-04
3.698560e-04
3.698560e-04
3.775970e-04
3.698545e-04
3.698721e-04
3.698617e-04
3.775143e-04
3.772969e-04
3.772896e-04
3.694025e-04
3.697764e-04
3.698601e-04
3.696302e-04
3.698559e-04
3.775235e-04
3.698609e-04
3.775966e-04
3.775289e-04
3.696385e-04
3.698506e-04
3.698651e-04
3.775214e-04
3.775996e-04
3.698582e-04
3.698537e-04
3.775962e-04
3.698551e-04
3.698521e-04
3.698539e-04
3.698524e-04
3.698574e-04
3.698622e-04
3.698661e-04
3.698585e-04
3.698559e-04
3.698615e-04
3.698552e-04
3.775262e-04
3.775989e-04
3.697753e-04
3.694117e-04
3.773043e-04
3.698571e-04
3.698593e-04
3.770717e-04
3.698460e-04
3.698597e-04
3.698695e-04
3.775195e-04
3.775877e-04
3.775861e-04
3.775225e-04
3.775874e-04
3.775976e-04
3.775977e-04
3.770730e-04
3.698502e-04
3.698637e-04
3.698566e-04
3.698673e-04
3.775259e-04
3.698595e-04
3.698521e-04
3.698548e-04
3.698552e-04
3.698598e-04
3.698594e-04
3.698665e-04
3.698452e-04
3.696251e-04
3.775152e-04
3.775982e-04
3.698543e-04
3.775238e-04
3.698496e-04
3.775258e-04
3.775973e-04
3.772606e-04
3.772908e-04
3.696335e-04
3.693601e-04
3.775950e-04
3.775967e-04
3.775291e-04
3.698526e-04
3.698566e-04
3.775241e-04
3.773702e-04
3.775279e-04
3.698675e-04
3.696235e-04
3.697764e-04
3.775963e-04
3.775224e-04
3.698547e-04
3.698541e-04
3.698551e-04
3.698533e-04
3.698508e-04
3.698525e-04
3.698491e-04
3.696274e-04
3.698597e-04
3.698574e-04
3.775212e-04
3.775976e-04
3.775258e-04
3.698570e-04
3.775210e-04
3.775265e-04
3.775885e-04
3.775268e-04
3.698602e-04
3.698630e-04
3.775293e-04
3.773004e-04
3.775102e-04
3.775966e-04
3.775974e-04
3.775273e-04
3.698613e-04
3.698527e-04
3.698501e-04
3.698435e-04
3.775216e-04
3.698581e-04
3.698494e-04
3.698611e-04
3.698553e-04
3.775144e-04
3.698499e-04
3.775887e-04
3.775974e-04
3.698561e-04
3.693754e-04
3.698385e-04
3.698510e-04
3.775976e-04
3.698549e-04
3.696369e-04
3.775213e-04
3.698766e-04
3.770725e-04
3.614253e-04
3.698574e-04
3.698693e-04
3.773024e-04
3.698482e-04
3.775251e-04
3.775263e-04
3.698637e-04
3.698628e-04
3.693987e-04
3.696306e-04
3.698495e-04
3.621128e-04
3.698474e-04
3.698681e-04
3.698554e-04
3.775960e-04
3.698765e-04
3.775972e-04
3.773691e-04
3.775876e-04
3.772969e-04
3.698597e-04
3.698645e-04
3.775184e-04
3.698552e-04
3.698582e-04
3.698516e-04
3.695439e-04
3.775881e-04
3.697722e-04
3.693935e-04
3.698366e-04
3.775988e-04
3.698557e-04
3.698534e-04
3.772938e-04
3.696309e-04
3.698691e-04
3.698725e-04
3.698769e-04
3.698573e-04
3.698617e-04
3.696318e-04
3.698578e-04
3.698606e-04
3.698555e-04
3.698548e-04
3.698586e-04
3.698604e-04
3.698622e-04
3.775265e-04
3.775981e-04
3.775280e-04
3.698625e-04
3.775267e-04
3.775982e-04
3.697779e-04
3.698576e-04
3.698552e-04
3.698606e-04
3.775978e-04
3.698750e-04
3.698757e-04
3.698624e-04
3.698597e-04
3.698581e-04
3.698650e-04
3.698812e-04
3.698634e-04
3.698648e-04
3.698593e-04
3.775992e-04
3.766189e-04
3.618846e-04
3.621125e-04
3.541359e-04
3.466164e-04
3.466185e-04
3.621055e-04
3.694043e-04
3.698498e-04
3.775888e-04
3.773712e-04
3.775191e-04
3.775311e-04
3.775979e-04
3.775317e-04
3.698439e-04
3.698698e-04
3.698784e-04
3.770690e-04
3.773721e-04
3.772973e-04
3.775292e-04
3.695517e-04
3.696263e-04
3.698670e-04
3.775237e-04
3.698575e-04
3.698602e-04
3.698564e-04
3.775976e-04
3.698722e-04
3.543586e-04
3.772570e-04
3.459264e-04
3.306625e-04
3.386209e-04
3.384047e-04
3.388532e-04
3.381910e-04
3.461433e-04
3.691572e-04
3.763917e-04
3.762236e-04
3.695874e-04
3.694049e-04
3.770960e-04
3.698417e-04
3.687188e-04
3.156332e-04
3.156271e-04
3.385416e-04
3.387691e-04
3.310322e-04
3.156234e-04
3.308833e-04
3.308818e-04
3.308859e-04
3.232916e-04
3.231534e-04
3.231480e-04
3.232922e-04
3.156272e-04
3.776012e-04
3.697809e-04
3.538859e-04
3.536729e-04
3.308807e-04
3.388413e-04
3.388401e-04
3.388366e-04
3.231483e-04
3.684196e-04
3.463596e-04
3.386223e-04
3.231458e-04
3.384049e-04
3.695761e-04
3.770277e-04
3.687093e-04
3.308866e-04
3.231557e-04
3.232822e-04
3.156257e-04
3.385535e-04
3.233648e-04
3.231475e-04
3.306689e-04
3.231445e-04
3.383353e-04
3.383355e-04
3.231414e-04
3.231436e-04
3.308129e-04
3.233626e-04
3.776019e-04
3.698584e-04
3.384030e-04
3.693653e-04
3.461474e-04
3.308200e-04
3.381887e-04
3.458587e-04
3.306655e-04
3.765896e-04
3.765925e-04
3.156246e-04
3.231464e-04
3.310350e-04
3.231404e-04
3.381884e-04
3.308798e-04
3.385492e-04
3.310297e-04
3.231618e-04
3.306653e-04
3.306641e-04
3.231432e-04
3.231407e-04
3.306646e-04
3.306686e-04
3.308853e-04
3.156255e-04
3.232890e-04
3.310264e-04
3.231443e-04
3.156229e-04
3.776017e-04
3.696313e-04
3.311200e-04
3.308844e-04
3.532255e-04
3.541195e-04
3.465287e-04
3.156198e-04
3.232974e-04
3.682733e-04
3.766110e-04
3.231492e-04
3.231422e-04
3.231456e-04
3.231456e-04
3.231448e-04
3.231504e-04
3.310339e-04
3.156214e-04
3.231504e-04
3.308126e-04
3.308143e-04
3.156257e-04
3.156249e-04
3.231450e-04
3.231449e-04
3.306623e-04
3.385513e-04
3.233606e-04
3.231471e-04
3.310406e-04
3.231425e-04
3.698592e-04
3.698505e-04
3.613313e-04
3.536655e-04
3.463583e-04
3.231442e-04
3.465207e-04
3.463065e-04
3.156194e-04
3.532279e-04
3.698165e-04
3.761578e-04
3.684846e-04
3.684824e-04
3.761611e-04
3.759426e-04
3.459210e-04
3.306663e-04
3.308115e-04
3.306666e-04
3.457184e-04
3.459241e-04
3.306679e-04
3.231444e-04
3.232953e-04
3.381831e-04
3.684839e-04
3.759406e-04
3.460703e-04
3.383990e-04
3.684875e-04
3.684874e-04
3.698527e-04
3.696361e-04
3.534419e-04
3.457032e-04
3.386266e-04
3.462958e-04
3.306607e-04
3.538164e-04
3.611175e-04
3.381813e-04
3.763756e-04
3.614040e-04
3.768763e-04
3.765885e-04
3.763717e-04
3.613977e-04
3.770324e-04
3.691443e-04
3.689180e-04
3.772466e-04
3.611801e-04
3.692875e-04
3.693500e-04
3.613315e-04
3.763767e-04
3.774812e-04
3.687023e-04
3.689206e-04
3.461501e-04
3.763786e-04
3.768094e-04
3.532236e-04
3.775277e-04
3.698585e-04
3.231434e-04
3.232926e-04
3.233591e-04
3.306665e-04
3.465726e-04
3.618463e-04
3.772761e-04
3.774952e-04
3.774603e-04
3.775740e-04
3.541107e-04
3.459268e-04
3.306653e-04
3.381874e-04
3.540406e-04
3.381815e-04
3.614023e-04
3.690670e-04
3.613542e-04
3.613961e-04
3.690747e-04
3.768396e-04
3.763750e-04
3.609670e-04
3.381822e-04
3.388394e-04
3.541082e-04
3.541061e-04
3.383405e-04
3.306642e-04
3.698598e-04
3.698631e-04
3.308222e-04
3.231426e-04
3.310977e-04
3.540325e-04
3.459264e-04
3.538153e-04
3.540277e-04
3.533771e-04
3.156245e-04
3.614017e-04
3.771092e-04
3.611148e-04
3.231534e-04
3.383370e-04
3.462915e-04
3.308106e-04
3.388495e-04
3.306620e-04
3.306608e-04
3.306633e-04
3.381852e-04
3.384031e-04
3.233627e-04
3.156238e-04
3.233636e-04
3.231454e-04
3.231518e-04
3.381819e-04
3.306618e-04
3.459346e-04
3.694145e-04
3.696277e-04
3.306680e-04
3.306642e-04
3.462929e-04
3.306637e-04
3.308962e-04
3.384087e-04
3.383377e-04
3.156245e-04
3.233627e-04
3.306651e-04
3.768136e-04
3.609034e-04
3.231426e-04
3.308112e-04
3.387844e-04
3.384078e-04
3.311075e-04
3.231513e-04
3.233591e-04
3.308807e-04
3.387715e-04
3.386257e-04
3.384017e-04
3.308212e-04
3.233649e-04
3.461553e-04
3.538870e-04
3.459313e-04
3.536679e-04
3.534410e-04
3.773017e-04
3.698630e-04
3.156233e-04
3.233682e-04
3.311006e-04
3.462924e-04
3.311099e-04
3.538119e-04
3.381944e-04
3.232860e-04
3.231452e-04
3.763761e-04
3.695875e-04
3.534498e-04
3.156258e-04
3.156288e-04
3.308155e-04
3.306691e-04
3.232939e-04
3.156283e-04
3.232902e-04
3.308817e-04
3.310994e-04
3.465126e-04
3.308823e-04
3.231447e-04
3.308869e-04
3.538183e-04
3.617629e-04
3.536582e-04
3.463551e-04
3.385513e-04
3.696407e-04
3.698440e-04
3.386264e-04
3.231444e-04
3.233654e-04
3.387699e-04
3.463835e-04
3.687021e-04
3.458551e-04
3.156256e-04
3.687055e-04
3.689213e-04
3.770219e-04
3.461500e-04
3.231449e-04
3.156243e-04
3.156243e-04
3.231440e-04
3.156255e-04
3.156242e-04
3.231496e-04
3.232920e-04
3.308843e-04
3.385570e-04
3.231456e-04
3.156213e-04
3.306651e-04
3.459256e-04
3.465789e-04
3.614103e-04
3.613385e-04
3.308900e-04
3.773735e-04
3.618946e-04
3.463777e-04
3.310986e-04
3.233628e-04
3.156263e-04
3.460732e-04
3.766624e-04
3.457010e-04
3.772528e-04
3.772447e-04
3.698039e-04
3.698138e-04
3.534515e-04
3.156342e-04
3.156235e-04
3.231411e-04
3.231479e-04
3.233631e-04
3.233738e-04
3.231508e-04
3.231502e-04
3.232970e-04
3.156262e-04
3.232982e-04
3.231426e-04
3.308862e-04
3.381867e-04
3.541002e-04
3.689295e-04
3.384133e-04
3.233712e-04
3.696352e-04
3.618897e-04
3.462929e-04
3.388591e-04
3.310978e-04
3.308864e-04
3.462921e-04
3.611821e-04
3.534489e-04
3.772683e-04
3.538774e-04
3.770245e-04
3.698090e-04
3.306688e-04
3.156241e-04
3.232933e-04
3.156299e-04
3.459261e-04
3.687177e-04
3.686977e-04
3.306635e-04
3.308165e-04
3.231451e-04
3.232947e-04
3.156195e-04
3.233603e-04
3.385478e-04
3.384046e-04
3.692980e-04
3.765921e-04
3.460730e-04
3.231440e-04
3.776009e-04
3.695583e-04
3.609791e-04
3.461489e-04
3.388673e-04
3.381853e-04
3.463723e-04
3.688598e-04
3.532219e-04
3.772511e-04
3.763890e-04
3.763739e-04
3.620022e-04
3.461616e-04
3.233626e-04
3.156255e-04
3.614053e-04
3.698166e-04
3.691365e-04
3.618342e-04
3.695791e-04
3.611157e-04
3.459292e-04
3.231380e-04
3.310312e-04
3.310296e-04
3.306664e-04
3.386241e-04
3.539004e-04
3.768974e-04
3.461463e-04
3.310291e-04
3.698659e-04
3.698579e-04
3.541083e-04
3.465764e-04
3.457042e-04
3.386195e-04
3.458564e-04
3.689266e-04
3.765890e-04
3.534456e-04
3.457021e-04
3.533748e-04
3.615462e-04
3.774827e-04
3.461533e-04
3.766023e-04
3.695697e-04
3.459251e-04
3.232896e-04
3.156265e-04
3.613284e-04
3.538739e-04
3.765930e-04
3.533767e-04
3.231420e-04
3.233671e-04
3.310376e-04
3.385504e-04
3.541255e-04
3.618604e-04
3.774782e-04
3.461441e-04
3.775211e-04
3.775183e-04
3.463747e-04
3.388622e-04
3.388501e-04
3.460790e-04
3.384148e-04
3.461546e-04
3.763786e-04
3.759338e-04
3.774852e-04
3.759397e-04
3.156194e-04
3.690674e-04
3.765866e-04
3.693714e-04
3.608962e-04
3.231463e-04
3.156232e-04
3.232943e-04
3.693895e-04
3.775033e-04
3.768183e-04
3.156218e-04
3.232923e-04
3.156261e-04
3.232934e-04
3.156215e-04
3.308868e-04
3.533780e-04
3.536631e-04
3.611870e-04
3.772799e-04
3.775252e-04
3.306722e-04
3.385576e-04
3.388408e-04
3.383340e-04
3.385649e-04
3.233649e-04
3.156228e-04
3.232902e-04
3.684873e-04
3.687042e-04
3.232965e-04
3.607496e-04
3.689169e-04
3.770529e-04
3.536072e-04
3.308148e-04
3.232967e-04
3.698199e-04
3.698418e-04
3.689391e-04
3.761581e-04
3.385509e-04
3.233656e-04
3.233614e-04
3.310334e-04
3.308131e-04
3.156225e-04
3.308131e-04
3.306706e-04
3.384030e-04
3.543915e-04
3.698654e-04
3.383370e-04
3.386238e-04
3.385526e-04
3.308849e-04
3.233665e-04
3.156248e-04
3.156246e-04
3.231478e-04
3.682708e-04
3.761588e-04
3.156288e-04
3.533762e-04
3.609690e-04
3.688516e-04
3.308152e-04
3.308855e-04
3.695198e-04
3.698480e-04
3.689223e-04
3.684837e-04
3.684899e-04
3.231446e-04
3.156214e-04
3.233628e-04
3.310345e-04
3.156241e-04
3.308142e-04
3.156212e-04
3.383403e-04
3.384033e-04
3.618904e-04
3.698599e-04
3.306657e-04
3.460709e-04
3.386242e-04
3.308813e-04
3.231437e-04
3.233630e-04
3.156307e-04
3.233625e-04
3.684847e-04
3.684893e-04
3.156270e-04
3.682718e-04
3.691504e-04
3.775234e-04
3.686365e-04
3.385571e-04
3.695929e-04
3.695813e-04
3.682664e-04
3.682700e-04
3.684895e-04
3.682661e-04
3.156245e-04
3.156271e-04
3.156194e-04
3.233636e-04
3.231437e-04
3.381929e-04
3.466088e-04
3.386167e-04
3.466137e-04
3.698551e-04
3.381894e-04
3.386308e-04
3.306650e-04
3.308794e-04
3.232891e-04
3.156244e-04
3.231423e-04
3.232907e-04
3.765959e-04
3.765907e-04
3.457043e-04
3.772436e-04
3.761563e-04
3.543188e-04
3.774604e-04
3.457099e-04
3.772804e-04
3.697953e-04
3.761567e-04
3.682671e-04
3.684827e-04
3.607509e-04
3.231437e-04
3.156228e-04
3.156300e-04
3.231416e-04
3.388468e-04
3.541346e-04
3.543265e-04
3.611951e-04
3.615747e-04
3.698586e-04
3.308905e-04
3.386432e-04
3.308826e-04
3.385583e-04
3.231509e-04
3.232900e-04
3.231461e-04
3.156263e-04
3.459236e-04
3.691420e-04
3.768353e-04
3.689403e-04
3.231415e-04
3.458566e-04
3.695922e-04
3.618299e-04
3.693749e-04
3.687175e-04
3.687107e-04
3.607462e-04
3.607471e-04
3.308803e-04
3.156176e-04
3.156239e-04
3.156227e-04
3.231498e-04
3.461514e-04
3.541087e-04
3.536666e-04
3.611170e-04
3.388659e-04
3.696291e-04
3.311142e-04
3.385615e-04
3.308856e-04
3.306684e-04
3.156198e-04
3.156302e-04
3.232927e-04
3.156247e-04
3.232933e-04
3.459266e-04
3.458622e-04
3.156206e-04
3.156237e-04
3.385469e-04
3.533787e-04
3.609671e-04
3.690849e-04
3.613355e-04
3.386274e-04
3.233632e-04
3.308783e-04
3.156229e-04
3.232957e-04
3.156221e-04
3.156255e-04
3.156221e-04
3.457097e-04
3.619814e-04
3.532279e-04
3.611167e-04
3.465335e-04
3.696312e-04
3.310295e-04
3.156259e-04
3.385553e-04
3.385565e-04
3.231467e-04
3.308105e-04
3.232929e-04
3.308146e-04
3.156243e-04
3.156208e-04
3.231464e-04
3.231538e-04
3.156236e-04
3.308924e-04
3.463675e-04
3.539067e-04
3.538798e-04
3.461420e-04
3.462978e-04
3.233600e-04
3.306621e-04
3.232938e-04
3.156232e-04
3.232914e-04
3.156245e-04
3.308097e-04
3.533760e-04
3.388355e-04
3.384049e-04
3.457066e-04
3.618609e-04
3.698592e-04
3.311012e-04
3.383390e-04
3.308788e-04
3.306641e-04
3.156242e-04
3.308137e-04
3.310326e-04
3.231471e-04
3.231421e-04
3.156230e-04
3.232940e-04
3.233659e-04
3.231531e-04
3.311084e-04
3.388397e-04
3.535987e-04
3.459305e-04
3.465216e-04
3.383352e-04
3.156271e-04
3.156317e-04
3.156196e-04
3.233626e-04
3.156206e-04
3.232871e-04
3.156214e-04
3.538137e-04
3.608979e-04
3.533790e-04
3.460715e-04
3.621145e-04
3.698530e-04
3.308804e-04
3.383352e-04
3.306670e-04
3.231442e-04
3.231431e-04
3.308138e-04
3.156290e-04
3.232905e-04
3.156306e-04
3.232927e-04
3.156252e-04
3.233626e-04
3.156229e-04
3.233695e-04
3.387866e-04
3.460767e-04
3.308146e-04
3.310352e-04
3.383353e-04
3.231426e-04
3.231446e-04
3.156247e-04
3.156241e-04
3.232932e-04
3.156277e-04
3.462872e-04
3.695965e-04
3.534517e-04
3.686366e-04
3.461486e-04
3.620283e-04
3.698651e-04
3.232906e-04
3.156220e-04
3.232953e-04
3.156233e-04
3.156258e-04
3.156240e-04
3.232897e-04
3.156361e-04
3.231439e-04
3.156282e-04
3.383367e-04
3.306653e-04
3.231447e-04
3.306655e-04
3.533781e-04
3.759425e-04
3.532235e-04
3.759381e-04
3.759378e-04
3.682623e-04
3.763756e-04
3.308818e-04
3.156296e-04
3.156283e-04
3.385509e-04
3.773344e-04
3.617835e-04
3.308816e-04
3.311034e-04
3.764553e-04
3.766051e-04
3.775318e-04
3.308827e-04
3.232981e-04
3.231416e-04
3.231470e-04
3.156266e-04
3.156222e-04
3.156236e-04
3.308939e-04
3.381902e-04
3.459283e-04
3.613371e-04
3.461578e-04
3.458553e-04
3.465852e-04
3.768129e-04
3.614099e-04
3.608939e-04
3.682705e-04
3.686975e-04
3.689219e-04
3.772677e-04
3.698387e-04
3.461534e-04
3.385577e-04
3.698519e-04
3.698341e-04
3.308830e-04
3.231433e-04
3.460743e-04
3.386169e-04
3.698419e-04
3.693957e-04
3.532348e-04
3.231389e-04
3.233610e-04
3.233719e-04
3.308089e-04
3.156242e-04
3.308807e-04
3.381935e-04
3.383981e-04
3.615468e-04
3.384027e-04
3.462908e-04
3.458594e-04
3.535957e-04
3.384025e-04
3.384031e-04
3.156254e-04
3.233635e-04
3.156225e-04
3.156268e-04
3.233641e-04
3.614143e-04
3.691590e-04
3.693617e-04
3.693589e-04
3.231512e-04
3.156328e-04
3.231484e-04
3.385505e-04
3.310318e-04
3.698635e-04
3.308798e-04
3.682711e-04
3.310314e-04
3.385523e-04
3.306646e-04
3.233607e-04
3.156231e-04
3.156210e-04
3.383301e-04
3.463803e-04
3.620049e-04
3.311020e-04
3.613426e-04
3.541012e-04
3.617947e-04
3.694027e-04
3.536627e-04
3.232956e-04
3.156199e-04
3.384063e-04
3.231524e-04
3.231495e-04
3.233586e-04
3.538197e-04
3.534508e-04
3.232867e-04
3.156232e-04
3.231477e-04
3.310322e-04
3.306644e-04
3.233662e-04
3.698620e-04
3.311149e-04
3.684882e-04
3.232883e-04
3.231416e-04
3.385518e-04
3.311018e-04
3.233593e-04
3.232909e-04
3.156230e-04
3.231527e-04
3.461475e-04
3.611195e-04
3.543374e-04
3.460741e-04
3.156312e-04
3.687058e-04
3.691711e-04
3.381861e-04
3.385620e-04
3.458542e-04
3.463003e-04
3.387662e-04
3.308165e-04
3.231494e-04
3.231454e-04
3.156271e-04
3.232924e-04
3.156295e-04
3.231425e-04
3.231478e-04
3.156247e-04
3.698699e-04
3.698623e-04
3.694082e-04
3.696467e-04
3.773710e-04
3.698492e-04
3.696254e-04
3.696398e-04
3.698534e-04
3.775978e-04
3.696430e-04
3.775780e-04
3.698544e-04
3.772820e-04
3.698554e-04
3.698702e-04
3.698617e-04
3.775284e-04
3.698519e-04
3.773031e-04
3.696281e-04
3.541469e-04
3.696258e-04
3.775242e-04
3.775981e-04
3.698655e-04
3.775967e-04
3.698571e-04
3.698624e-04
3.698661e-04
3.698549e-04
3.698592e-04
3.698716e-04
3.698564e-04
3.689559e-04
3.698729e-04
3.698665e-04
3.620287e-04
3.466120e-04
3.543633e-04
3.698561e-04
3.698600e-04
3.696317e-04
3.696281e-04
3.775336e-04
3.696293e-04
3.691573e-04
3.387908e-04
3.684966e-04
3.698578e-04
3.775286e-04
3.698558e-04
3.616561e-04
3.770726e-04
3.775993e-04
3.698645e-04
3.694065e-04
3.696194e-04
3.698545e-04
3.621065e-04
3.698568e-04
3.698584e-04
3.698559e-04
3.698584e-04
3.698585e-04
3.542841e-04
3.693930e-04
3.463698e-04
3.311049e-04
3.388601e-04
3.384097e-04
3.388511e-04
3.308845e-04
3.538967e-04
3.611809e-04
3.386213e-04
3.231431e-04
3.308845e-04
3.693562e-04
3.770332e-04
3.697883e-04
3.231435e-04
3.231471e-04
3.231488e-04
3.463710e-04
3.385590e-04
3.156251e-04
3.233626e-04
3.156278e-04
3.156234e-04
3.308805e-04
3.233652e-04
3.233633e-04
3.233685e-04
3.385553e-04
3.310307e-04
3.698585e-04
3.543653e-04
3.536744e-04
3.541141e-04
3.384035e-04
3.386334e-04
3.386270e-04
3.388550e-04
3.381834e-04
3.686390e-04
3.538176e-04
3.310342e-04
3.308201e-04
3.385528e-04
3.386212e-04
3.308785e-04
3.308828e-04
3.156206e-04
3.156213e-04
3.231550e-04
3.458471e-04
3.383998e-04
3.385561e-04
3.306712e-04
3.311033e-04
3.306704e-04
3.231423e-04
3.308899e-04
3.231526e-04
3.156312e-04
3.310291e-04
3.156226e-04
3.775286e-04
3.697830e-04
3.386187e-04
3.616398e-04
3.386244e-04
3.232959e-04
3.306744e-04
3.306631e-04
3.233625e-04
3.689304e-04
3.761659e-04
3.156253e-04
3.308117e-04
3.308193e-04
3.310312e-04
3.383374e-04
3.231441e-04
3.231472e-04
3.231460e-04
3.381896e-04
3.534520e-04
3.459242e-04
3.383355e-04
3.156269e-04
3.308880e-04
3.306659e-04
3.156265e-04
3.308088e-04
3.231439e-04
3.308130e-04
3.308150e-04
3.232928e-04
3.698637e-04
3.696183e-04
3.463029e-04
3.536694e-04
3.542482e-04
3.310995e-04
3.462911e-04
3.383335e-04
3.156179e-04
3.759461e-04
3.759421e-04
3.156237e-04
3.232896e-04
3.308157e-04
3.232909e-04
3.156259e-04
3.156201e-04
3.156233e-04
3.232905e-04
3.609642e-04
3.684155e-04
3.534451e-04
3.381877e-04
3.156246e-04
3.233611e-04
3.308855e-04
3.386277e-04
3.463007e-04
3.306596e-04
3.308154e-04
3.385477e-04
3.310285e-04
3.698631e-04
3.775905e-04
3.465916e-04
3.542590e-04
3.465198e-04
3.463605e-04
3.386206e-04
3.386180e-04
3.231445e-04
3.682687e-04
3.687039e-04
3.310325e-04
3.381909e-04
3.381832e-04
3.457066e-04
3.687011e-04
3.381875e-04
3.381865e-04
3.384047e-04
3.687040e-04
3.691395e-04
3.689218e-04
3.608970e-04
3.308137e-04
3.306639e-04
3.534461e-04
3.763839e-04
3.614074e-04
3.611237e-04
3.533787e-04
3.689224e-04
3.698169e-04
3.698441e-04
3.696327e-04
3.535910e-04
3.460760e-04
3.308887e-04
3.311175e-04
3.384053e-04
3.461502e-04
3.688506e-04
3.695725e-04
3.695692e-04
3.765914e-04
3.768216e-04
3.687127e-04
3.768160e-04
3.761539e-04
3.691450e-04
3.687119e-04
3.689192e-04
3.691428e-04
3.690727e-04
3.691611e-04
3.770395e-04
3.383970e-04
3.763813e-04
3.693515e-04
3.691339e-04
3.770260e-04
3.763691e-04
3.761508e-04
3.770951e-04
3.684156e-04
3.698608e-04
3.698567e-04
3.308849e-04
3.156221e-04
3.232895e-04
3.384138e-04
3.461520e-04
3.613298e-04
3.768194e-04
3.768148e-04
3.306609e-04
3.536642e-04
3.686403e-04
3.388397e-04
3.386300e-04
3.231408e-04
3.459350e-04
3.458497e-04