# vtk DataFile Version 3.0
Cu single-crystal phase-field data
ASCII
DATASET STRUCTURED_POINTS
DIMENSIONS 32 32 16
ORIGIN 0 0 0
SPACING 5.000000e-07 5.000000e-07 5.000000e-07
POINT_DATA 16384
SCALARS crack float 1
LOOKUP_TABLE default
8.494137e-04
8.494150e-04
8.493373e-04
8.416784e-04
8.416644e-04
8.416645e-04
8.416754e-04
8.416713e-04
8.416675e-04
8.416811e-04
8.494113e-04
8.494125e-04
8.416739e-04
8.416704e-04
8.494111e-04
8.416708e-04
8.414497e-04
8.416710e-04
8.416935e-04
8.416898e-04
8.494120e-04
8.493435e-04
8.494109e-04
8.494125e-04
8.493395e-04
8.493391e-04
8.494152e-04
8.493381e-04
8.416730e-04
8.416661e-04
8.416742e-04
8.416864e-04
8.416682e-04
8.490876e-04
8.261770e-04
8.336797e-04
8.336823e-04
8.339075e-04
8.334605e-04
8.339141e-04
8.412115e-04
8.484334e-04
8.405309e-04
8.254043e-04
8.405262e-04
8.493351e-04
8.494080e-04
8.493419e-04
8.409950e-04
8.414552e-04
8.339391e-04
8.416757e-04
8.339239e-04
8.416560e-04
8.493375e-04
8.488767e-04
8.261712e-04
8.491681e-04
8.491872e-04
8.491029e-04
8.414426e-04
8.491096e-04
8.494086e-04
8.416889e-04
8.414352e-04
8.416525e-04
8.334584e-04
8.261734e-04
8.336142e-04
8.334531e-04
8.184151e-04
8.412109e-04
8.416671e-04
8.494087e-04
8.493353e-04
8.414365e-04
8.416583e-04
8.413791e-04
8.260438e-04
8.261566e-04
8.411280e-04
8.416458e-04
8.416679e-04
8.494027e-04
8.336889e-04
8.416693e-04
8.416587e-04
8.414300e-04
8.415808e-04
8.491793e-04
8.489501e-04
8.414423e-04
8.416397e-04
8.493878e-04
8.493319e-04
8.494161e-04
8.414414e-04
8.416588e-04
8.416242e-04
8.493305e-04
8.494025e-04
8.493240e-04
8.416529e-04
8.416490e-04
8.416754e-04
8.493129e-04
8.493290e-04
8.416713e-04
8.415762e-04
8.414246e-04
8.414317e-04
8.490936e-04
8.493836e-04
8.490803e-04
8.414571e-04
8.488678e-04
8.336794e-04
8.414316e-04
8.416558e-04
8.336831e-04
8.493322e-04
8.494052e-04
8.494049e-04
8.493221e-04
8.416515e-04
8.494050e-04
8.416591e-04
8.494128e-04
8.414363e-04
8.416456e-04
8.416581e-04
8.491044e-04
8.490787e-04
8.416484e-04
8.493939e-04
8.416602e-04
8.493260e-04
8.489405e-04
8.494019e-04
8.414307e-04
8.494000e-04
8.491722e-04
8.414376e-04
8.416543e-04
8.490768e-04
8.493893e-04
8.490853e-04
8.338978e-04
8.490963e-04
8.416554e-04
8.416539e-04
8.414309e-04
8.416656e-04
8.493325e-04
8.416556e-04
8.493183e-04
8.493174e-04
8.490948e-04
8.416478e-04
8.493408e-04
8.414429e-04
8.416785e-04
8.493317e-04
8.493998e-04
8.491687e-04
8.339059e-04
8.493166e-04
8.416675e-04
8.416581e-04
8.490892e-04
8.493114e-04
8.414439e-04
8.493887e-04
8.491743e-04
8.488765e-04
8.416589e-04
8.416535e-04
8.416488e-04
8.411924e-04
8.488593e-04
8.407449e-04
8.414173e-04
8.414292e-04
8.416487e-04
8.416676e-04
8.416593e-04
8.415785e-04
8.493959e-04
8.493176e-04
8.414290e-04
8.416481e-04
8.491056e-04
8.416650e-04
8.414427e-04
8.416610e-04
8.493342e-04
8.412013e-04
8.413498e-04
8.416563e-04
8.493318e-04
8.416696e-04
8.416666e-04
8.494094e-04
8.416756e-04
8.416575e-04
8.493242e-04
8.494078e-04
8.409994e-04
8.254956e-04
8.402923e-04
8.404500e-04
8.409729e-04
8.254880e-04
8.411730e-04
8.416562e-04
8.493963e-04
8.416194e-04
8.414111e-04
8.416525e-04
8.491012e-04
8.414452e-04
8.416630e-04
8.493355e-04
8.494130e-04
8.416750e-04
8.416599e-04
8.416538e-04
8.416534e-04
8.414314e-04
8.488789e-04
8.487259e-04
8.487249e-04
8.409908e-04
8.400794e-04
8.409989e-04
8.494105e-04
8.416617e-04
8.416770e-04
8.416579e-04
8.339027e-04
8.491061e-04
8.413461e-04
8.494044e-04
8.413605e-04
8.336921e-04
8.184372e-04
8.412174e-04
8.494094e-04
8.416586e-04
8.493336e-04
8.416612e-04
8.414368e-04
8.412109e-04
8.339189e-04
8.339112e-04
8.493474e-04
8.416693e-04
8.416675e-04
8.416632e-04
8.416633e-04
8.416440e-04
8.414510e-04
8.493286e-04
8.416487e-04
8.416518e-04
8.494054e-04
8.416716e-04
8.416638e-04
8.494060e-04
8.416600e-04
8.493990e-04
8.493982e-04
8.493967e-04
8.491023e-04
8.493236e-04
8.416656e-04
8.416620e-04
8.416617e-04
8.414289e-04
8.416565e-04
8.493997e-04
8.494026e-04
8.493310e-04
8.416666e-04
8.416579e-04
8.416716e-04
8.416638e-04
8.493447e-04
8.416613e-04
8.416567e-04
8.416491e-04
8.416550e-04
8.491732e-04
8.414302e-04
8.494046e-04
8.416675e-04
8.493286e-04
8.414448e-04
8.493994e-04
8.416615e-04
8.414224e-04
8.416629e-04
8.416498e-04
8.416564e-04
8.493302e-04
8.493353e-04
8.416502e-04
8.493298e-04
8.414361e-04
8.416589e-04
8.415833e-04
8.416476e-04
8.416645e-04
8.493340e-04
8.493182e-04
8.414434e-04
8.339182e-04
8.414345e-04
8.493336e-04
8.494150e-04
8.416705e-04
8.416560e-04
8.416606e-04
8.416596e-04
8.416506e-04
8.416524e-04
8.416681e-04
8.493333e-04
8.494081e-04
8.415875e-04
8.414444e-04
8.491079e-04
8.414361e-04
8.416571e-04
8.416648e-04
8.416678e-04
8.493331e-04
8.493998e-04
8.416604e-04
8.493970e-04
8.493225e-04
8.493299e-04
8.494006e-04
8.490982e-04
8.416577e-04
8.493273e-04
8.494029e-04
8.338318e-04
8.336812e-04
8.339121e-04
8.414350e-04
8.491161e-04
8.416782e-04
8.339161e-04
8.416589e-04
8.493299e-04
8.416609e-04
8.412065e-04
8.411897e-04
8.416734e-04
8.493272e-04
8.414442e-04
8.491042e-04
8.489537e-04
8.490973e-04
8.416675e-04
8.416649e-04
8.416483e-04
8.416606e-04
8.493302e-04
8.416696e-04
8.493234e-04
8.416618e-04
8.416541e-04
8.488773e-04
8.416447e-04
8.416525e-04
8.416560e-04
8.493207e-04
8.336891e-04
8.336517e-04
8.336743e-04
8.491800e-04
8.414556e-04
8.416800e-04
8.416520e-04
8.493268e-04
8.493993e-04
8.493988e-04
8.416643e-04
8.414279e-04
8.494028e-04
8.488834e-04
8.336803e-04
8.416568e-04
8.491020e-04
8.416625e-04
8.416862e-04
8.493271e-04
8.416604e-04
8.339089e-04
8.416672e-04
8.416777e-04
8.339061e-04
8.493348e-04
8.416737e-04
8.494002e-04
8.416555e-04
8.416592e-04
8.339100e-04
8.336894e-04
8.257146e-04
8.329276e-04
8.334738e-04
8.339166e-04
8.414469e-04
8.416676e-04
8.414322e-04
8.412066e-04
8.493299e-04
8.416482e-04
8.414294e-04
8.491825e-04
8.493977e-04
8.336748e-04
8.333801e-04
8.259311e-04
8.404895e-04
8.416759e-04
8.493994e-04
8.494027e-04
8.493295e-04
8.416665e-04
8.339194e-04
8.414534e-04
8.493358e-04
8.493991e-04
8.416682e-04
8.494015e-04
8.493296e-04
8.416565e-04
8.339119e-04
8.261698e-04
8.258659e-04
8.329963e-04
8.411383e-04
8.416614e-04
8.416759e-04
8.416730e-04
8.411901e-04
8.184254e-04
8.261641e-04
8.416619e-04
8.336806e-04
8.411956e-04
8.493321e-04
8.259398e-04
8.339052e-04
8.491686e-04
8.332202e-04
8.492441e-04
8.494065e-04
8.494016e-04
8.415617e-04
8.416466e-04
8.416450e-04
8.416585e-04
8.416485e-04
8.491029e-04
8.414390e-04
8.493277e-04
8.339082e-04
8.414275e-04
8.416501e-04
8.413560e-04
8.339062e-04
8.329246e-04
8.334562e-04
8.339150e-04
8.416800e-04
8.416774e-04
8.106936e-04
8.184176e-04
8.184255e-04
8.259540e-04
8.261697e-04
8.332355e-04
8.493430e-04
8.334496e-04
8.486513e-04
8.494072e-04
8.416531e-04
8.416709e-04
8.489547e-04
8.412174e-04
8.416538e-04
8.416569e-04
8.416653e-04
8.493253e-04
8.416602e-04
8.484366e-04
8.416238e-04
8.416616e-04
8.416698e-04
8.339130e-04
8.416458e-04
8.494052e-04
8.413560e-04
8.184125e-04
8.411895e-04
8.414492e-04
8.416795e-04
8.493487e-04
8.416838e-04
8.416805e-04
8.261635e-04
8.338323e-04
8.336978e-04
8.339082e-04
8.416716e-04
8.494136e-04
8.416293e-04
8.416688e-04
8.416635e-04
8.416729e-04
8.336930e-04
8.339131e-04
8.414353e-04
8.416784e-04
8.493984e-04
8.494084e-04
8.493285e-04
7.637405e-04
8.398072e-04
8.494053e-04
8.416565e-04
8.493268e-04
8.493987e-04
8.493965e-04
8.416649e-04
8.339139e-04
8.416652e-04
8.409842e-04
8.416925e-04
8.494236e-04
8.493319e-04
8.416648e-04
8.491034e-04
8.339140e-04
8.415819e-04
8.416664e-04
8.416666e-04
8.416623e-04
8.416726e-04
8.416559e-04
8.416756e-04
8.416745e-04
8.259448e-04
8.339036e-04
8.491857e-04
8.494041e-04
8.494120e-04
8.494099e-04
7.951875e-04
7.403041e-04
8.391557e-04
8.416723e-04
8.416631e-04
8.339182e-04
8.415817e-04
8.416592e-04
8.416756e-04
8.416606e-04
8.493425e-04
8.261675e-04
8.416959e-04
8.493417e-04
8.416562e-04
8.494010e-04
8.494024e-04
8.491012e-04
8.416615e-04
8.493319e-04
8.416633e-04
8.416638e-04
8.339213e-04
8.412122e-04
8.494099e-04
8.416719e-04
8.259420e-04
8.416749e-04
8.494134e-04
8.494159e-04
8.494138e-04
8.027063e-04
7.794727e-04
7.407383e-04
8.389333e-04
8.416701e-04
8.416749e-04
8.416713e-04
8.416693e-04
8.493991e-04
8.416654e-04
8.493283e-04
8.494084e-04
8.413589e-04
8.416690e-04
8.416723e-04
8.416591e-04
8.491042e-04
8.416510e-04
8.491026e-04
8.493294e-04
8.494016e-04
8.493329e-04
8.416584e-04
8.416710e-04
8.416462e-04
8.416732e-04
8.414523e-04
8.334906e-04
8.257052e-04
8.416726e-04
8.415982e-04
8.414419e-04
7.951937e-04
7.480308e-04
7.559964e-04
7.867345e-04
8.413861e-04
8.416727e-04
8.416758e-04
8.416678e-04
8.416544e-04
8.416664e-04
8.416649e-04
8.493419e-04
8.412097e-04
8.416689e-04
8.416822e-04
8.416617e-04
8.416781e-04
8.415804e-04
8.493316e-04
8.416586e-04
8.494021e-04
8.416868e-04
8.494087e-04
8.416660e-04
8.416688e-04
8.494073e-04
8.412238e-04
8.402967e-04
8.475613e-04
8.412112e-04
8.412123e-04
8.259562e-04
7.785577e-04
7.787884e-04
7.867532e-04
7.949416e-04
8.336505e-04
8.414517e-04
8.416706e-04
8.416661e-04
8.416673e-04
8.339168e-04
8.184316e-04
8.334627e-04
8.339198e-04
8.416791e-04
8.416767e-04
8.416657e-04
8.339155e-04
8.338303e-04
8.494028e-04
8.493288e-04
8.416613e-04
8.416610e-04
8.416559e-04
8.414469e-04
8.416808e-04
8.416648e-04
8.416559e-04
8.493436e-04
8.493079e-04
8.257020e-04
8.261576e-04
7.947312e-04
8.254064e-04
8.250463e-04
8.402976e-04
8.338751e-04
8.416436e-04
8.416721e-04
8.416696e-04
8.416785e-04
8.416720e-04
8.339219e-04
8.182066e-04
8.257256e-04
8.416702e-04
8.494218e-04
8.416789e-04
8.414396e-04
8.414192e-04
8.339176e-04
8.493303e-04
8.416705e-04
8.416639e-04
8.416565e-04
8.494010e-04
8.416616e-04
8.414300e-04
8.416773e-04
8.493370e-04
8.494119e-04
8.489595e-04
8.333757e-04
8.104508e-04
8.105862e-04
8.414266e-04
8.491760e-04
8.414395e-04
8.336878e-04
8.416660e-04
8.416675e-04
8.416629e-04
8.416669e-04
8.416721e-04
8.416691e-04
8.181914e-04
8.182000e-04
8.261694e-04
8.416900e-04
8.416679e-04
8.416579e-04
8.494018e-04
8.414329e-04
8.416517e-04
8.416613e-04
8.416631e-04
8.339077e-04
8.416524e-04
8.339088e-04
8.416515e-04
8.416687e-04
8.416573e-04
8.493368e-04
8.490994e-04
8.259279e-04
8.415660e-04
8.339106e-04
8.493941e-04
8.494015e-04
8.491115e-04
8.414325e-04
8.416698e-04
8.494062e-04
8.416639e-04
8.416650e-04
8.416605e-04
8.491113e-04
8.336828e-04
8.339038e-04
8.491130e-04
8.416769e-04
8.416698e-04
8.416553e-04
8.416453e-04
8.336885e-04
8.416554e-04
8.416516e-04
8.416535e-04
8.416507e-04
8.416524e-04
8.416513e-04
8.416587e-04
8.416680e-04
8.414497e-04
8.416616e-04
8.416469e-04
8.493153e-04
8.493916e-04
8.493153e-04
8.493280e-04
8.493352e-04
8.416798e-04
8.416615e-04
8.493301e-04
8.494042e-04
8.493228e-04
8.416562e-04
8.493279e-04
8.494061e-04
8.490779e-04
8.493308e-04
8.494086e-04
8.494140e-04
8.414440e-04
8.416467e-04
8.416555e-04
8.416532e-04
8.416484e-04
8.416524e-04
8.416492e-04
8.493951e-04
8.416586e-04
8.416528e-04
8.416550e-04
8.493983e-04
8.416556e-04
8.416718e-04
8.416653e-04
8.493181e-04
8.491046e-04
8.490954e-04
8.412119e-04
8.415837e-04
8.416696e-04
8.414351e-04
8.416581e-04
8.493276e-04
8.416615e-04
8.493997e-04
8.493357e-04
8.414471e-04
8.416571e-04
8.416753e-04
8.493323e-04
8.494151e-04
8.416670e-04
8.416530e-04
8.493952e-04
8.416515e-04
8.416478e-04
8.416502e-04
8.416483e-04
8.416543e-04
8.416595e-04
8.416649e-04
8.416587e-04
8.416560e-04
8.416617e-04
8.416552e-04
8.493311e-04
8.494075e-04
8.415830e-04
8.412195e-04
8.491176e-04
8.416645e-04
8.416661e-04
8.488778e-04
8.416469e-04
8.416587e-04
8.416704e-04
8.493234e-04
8.493928e-04
8.493930e-04
8.490999e-04
8.493948e-04
8.494046e-04
8.494080e-04
8.488844e-04
8.416517e-04
8.416616e-04
8.416522e-04
8.416634e-04
8.493226e-04
8.416557e-04
8.416481e-04
8.416530e-04
8.416539e-04
8.416622e-04
8.416606e-04
8.416693e-04
8.416497e-04
8.414309e-04
8.493273e-04
8.494010e-04
8.416559e-04
8.493237e-04
8.416474e-04
8.493315e-04
8.491771e-04
8.490576e-04
8.475018e-04
8.400671e-04
8.400235e-04
8.487203e-04
8.491663e-04
8.493247e-04
8.416494e-04
8.416524e-04
8.493359e-04
8.491802e-04
8.493340e-04
8.416676e-04
8.414194e-04
8.415720e-04
8.493929e-04
8.493193e-04
8.416506e-04
8.416501e-04
8.416545e-04
8.416537e-04
8.416533e-04
8.416547e-04
8.416514e-04
8.414330e-04
8.416677e-04
8.416591e-04
8.493187e-04
8.493964e-04
8.493314e-04
8.416621e-04
8.493284e-04
8.493369e-04
8.494007e-04
8.493415e-04
8.416706e-04
8.416714e-04
8.493362e-04
8.490987e-04
8.493174e-04
8.493956e-04
8.494095e-04
8.491096e-04
8.416696e-04
8.416519e-04
8.416479e-04
8.416407e-04
8.493191e-04
8.416549e-04
8.416451e-04
8.416591e-04
8.416534e-04
8.493159e-04
8.416507e-04
8.493924e-04
8.494009e-04
8.416580e-04
8.411833e-04
8.416383e-04
8.416450e-04
8.494037e-04
8.416567e-04
8.414409e-04
8.493263e-04
8.416823e-04
8.488788e-04
8.332312e-04
8.416634e-04
8.416786e-04
8.491089e-04
8.416575e-04
8.493339e-04
8.493371e-04
8.416772e-04
8.414424e-04
8.412062e-04
8.414318e-04
8.416490e-04
8.339120e-04
8.416434e-04
8.416651e-04
8.416510e-04
8.493924e-04
8.416720e-04
8.493960e-04
8.491699e-04
8.493883e-04
8.490986e-04
8.416591e-04
8.416686e-04
8.493183e-04
8.416489e-04
8.416588e-04
8.416510e-04
8.413443e-04
8.493907e-04
8.415752e-04
8.411965e-04
8.416434e-04
8.494075e-04
8.416616e-04
8.416559e-04
8.491007e-04
8.414361e-04
8.416750e-04
8.416844e-04
8.339400e-04
8.416686e-04
8.416702e-04
8.414385e-04
8.416631e-04
8.416632e-04
8.416585e-04
8.416549e-04
8.416619e-04
8.416614e-04
8.416645e-04
8.493276e-04
8.494032e-04
8.493337e-04
8.416697e-04
8.493354e-04
8.491801e-04
8.413563e-04
8.416646e-04
8.416599e-04
8.416659e-04
8.494046e-04
8.416824e-04
8.416820e-04
8.416676e-04
8.416673e-04
8.416658e-04
8.416728e-04
8.416889e-04
8.416733e-04
8.416755e-04
8.416706e-04
8.494213e-04
8.484409e-04
8.336972e-04
8.339232e-04
8.259454e-04
8.184242e-04
8.184261e-04
8.339122e-04
8.412161e-04
8.416594e-04
8.494014e-04
8.491833e-04
8.493322e-04
8.493465e-04
8.494135e-04
8.493530e-04
8.416619e-04
8.416815e-04
8.416917e-04
8.488828e-04
8.491881e-04
8.491119e-04
8.493431e-04
8.413648e-04
8.414385e-04
8.416814e-04
8.493398e-04
8.416698e-04
8.416738e-04
8.416623e-04
8.494147e-04
8.416972e-04
8.104756e-04
7.941916e-04
7.403002e-04
7.250377e-04
7.329949e-04
7.327785e-04
7.332276e-04
7.325633e-04
7.405141e-04
7.635276e-04
7.707605e-04
7.781102e-04
7.639534e-04
7.637720e-04
7.789860e-04
8.175042e-04
8.311973e-04
7.330010e-04
7.175256e-04
7.329199e-04
7.331482e-04
7.254105e-04
7.100045e-04
7.252584e-04
7.252608e-04
7.252617e-04
7.176697e-04
7.175315e-04
7.252610e-04
7.331396e-04
7.327865e-04
8.339514e-04
8.261166e-04
7.708165e-04
7.480425e-04
7.252571e-04
7.332153e-04
7.332176e-04
7.332086e-04
7.175276e-04
7.627950e-04
7.482535e-04
7.482460e-04
7.400757e-04
7.555459e-04
7.867226e-04
8.021441e-04
8.166031e-04
7.708012e-04
7.405295e-04
7.251776e-04
7.100068e-04
7.329333e-04
7.177444e-04
7.175256e-04
7.250454e-04
7.175227e-04
7.327118e-04
7.327144e-04
7.252542e-04
7.329999e-04
7.406693e-04
7.407365e-04
8.416875e-04
8.339396e-04
7.478129e-04
7.637385e-04
7.405200e-04
7.251980e-04
7.325628e-04
7.402342e-04
7.250407e-04
7.784858e-04
7.864590e-04
7.330013e-04
7.327858e-04
7.559220e-04
7.480377e-04
7.630850e-04
7.557726e-04
7.559226e-04
7.484133e-04
7.330181e-04
7.325604e-04
7.250422e-04
7.175214e-04
7.175189e-04
7.250405e-04
7.250466e-04
7.327819e-04
7.252675e-04
7.406625e-04
7.484022e-04
7.405178e-04
7.332168e-04
8.416915e-04
8.414612e-04
7.330122e-04
7.252595e-04
7.475997e-04
7.484967e-04
7.409048e-04
7.100009e-04
7.176755e-04
7.776932e-04
7.937687e-04
7.252624e-04
7.327723e-04
7.252591e-04
7.325590e-04
7.329972e-04
7.330121e-04
7.409013e-04
7.254896e-04
7.480499e-04
7.481979e-04
7.479727e-04
7.327762e-04
7.327754e-04
7.402939e-04
7.403010e-04
7.555541e-04
7.634520e-04
7.482600e-04
7.480466e-04
7.559420e-04
7.480437e-04
8.416937e-04
8.416765e-04
7.556981e-04
7.480380e-04
7.407273e-04
7.175223e-04
7.408969e-04
7.406842e-04
7.100006e-04
7.551160e-04
7.796756e-04
7.935276e-04
7.856337e-04
7.933562e-04
8.012566e-04
8.008303e-04
7.785474e-04
7.708140e-04
7.784681e-04
7.856230e-04
8.084091e-04
8.159080e-04
8.006489e-04
7.931294e-04
7.932806e-04
8.081702e-04
8.309591e-04
8.308983e-04
7.935150e-04
7.783259e-04
8.008996e-04
7.935974e-04
8.414424e-04
8.414663e-04
7.478107e-04
7.400725e-04
7.329998e-04
7.406712e-04
7.250359e-04
7.481887e-04
7.554895e-04
7.325535e-04
7.782637e-04
7.708130e-04
7.938005e-04
7.935140e-04
7.932897e-04
7.783139e-04
8.014695e-04
8.010982e-04
8.083880e-04
8.167190e-04
8.081653e-04
8.162748e-04
8.163378e-04
8.083189e-04
8.233678e-04
8.244706e-04
8.081745e-04
8.083915e-04
7.781044e-04
8.008193e-04
7.937342e-04
7.626240e-04
8.493585e-04
8.417029e-04
7.175216e-04
7.176715e-04
7.177372e-04
7.250416e-04
7.409440e-04
7.562190e-04
7.716458e-04
7.793857e-04
7.870881e-04
7.794664e-04
7.484826e-04
7.403023e-04
7.250405e-04
7.325610e-04
7.484117e-04
7.325537e-04
7.557686e-04
7.634355e-04
7.557233e-04
7.557611e-04
7.634418e-04
7.712088e-04
7.707449e-04
7.553377e-04
7.325544e-04
7.332132e-04
7.484823e-04
7.484796e-04
7.327163e-04
7.250394e-04
8.417048e-04
8.417046e-04
7.252011e-04
7.175208e-04
7.254727e-04
7.484079e-04
7.403014e-04
7.481862e-04
7.561404e-04
7.632274e-04
7.250403e-04
7.710332e-04
7.790157e-04
7.554934e-04
7.175315e-04
7.327106e-04
7.406670e-04
7.251857e-04
7.332232e-04
7.250372e-04
7.250360e-04
7.250385e-04
7.325610e-04
7.327805e-04
7.177408e-04
7.100049e-04
7.177431e-04
7.175246e-04
7.175299e-04
7.325576e-04
7.250395e-04
7.403083e-04
8.412652e-04
8.414679e-04
7.250432e-04
7.250406e-04
7.406691e-04
7.250389e-04
7.252713e-04
7.403086e-04
7.479734e-04
7.177403e-04
7.329943e-04
7.405207e-04
7.787191e-04
7.552857e-04
7.175208e-04
7.251887e-04
7.331596e-04
7.327814e-04
7.254825e-04
7.175295e-04
7.177373e-04
7.252558e-04
7.331488e-04
7.330021e-04
7.327776e-04
7.252011e-04
7.177432e-04
7.405293e-04
7.482634e-04
7.403049e-04
7.480420e-04
7.478130e-04
8.491445e-04
8.417023e-04
7.100044e-04
7.177463e-04
7.254785e-04
7.406709e-04
7.254863e-04
7.557107e-04
7.476125e-04
7.253999e-04
7.402979e-04
7.862357e-04
7.714947e-04
7.478262e-04
7.100069e-04
7.100099e-04
7.251958e-04
7.250456e-04
7.176720e-04
7.100094e-04
7.176683e-04
7.252568e-04
7.254763e-04
7.408907e-04
7.252576e-04
7.175228e-04
7.252620e-04
7.481939e-04
7.561399e-04
7.480302e-04
7.407259e-04
7.329234e-04
8.414858e-04
8.416837e-04
7.330013e-04
7.175227e-04
7.177434e-04
7.331463e-04
7.407585e-04
7.706033e-04
7.554808e-04
7.327761e-04
7.858564e-04
7.787871e-04
7.789196e-04
7.405263e-04
7.175231e-04
7.100054e-04
7.100054e-04
7.175237e-04
7.100066e-04
7.100053e-04
7.175301e-04
7.176715e-04
7.252634e-04
7.329372e-04
7.175237e-04
7.100024e-04
7.250408e-04
7.403031e-04
7.409548e-04
7.557862e-04
7.557109e-04
7.252650e-04
8.492143e-04
8.337321e-04
7.407525e-04
7.254763e-04
7.177411e-04
7.100074e-04
7.404524e-04
7.785575e-04
7.555504e-04
7.946192e-04
7.943954e-04
7.873988e-04
7.792312e-04
7.478261e-04
7.100153e-04
7.100046e-04
7.175200e-04
7.175265e-04
7.177430e-04
7.177528e-04
7.175295e-04
7.175300e-04
7.176754e-04
7.100073e-04
7.176773e-04
7.175234e-04
7.252629e-04
7.325636e-04
7.484770e-04
7.633082e-04
7.403029e-04
7.177493e-04
8.414737e-04
8.337245e-04
7.406655e-04
7.332363e-04
7.254728e-04
7.252674e-04
7.406668e-04
7.705912e-04
7.708194e-04
8.019390e-04
7.787579e-04
8.098707e-04
8.026812e-04
7.250440e-04
7.100052e-04
7.176717e-04
7.100110e-04
8.154767e-04
8.382867e-04
8.382550e-04
7.250404e-04
7.251953e-04
7.175247e-04
7.176732e-04
7.100006e-04
7.177394e-04
7.329236e-04
7.327793e-04
7.636720e-04
7.709709e-04
7.479619e-04
7.250394e-04
8.494391e-04
8.413923e-04
7.553515e-04
7.405186e-04
7.332414e-04
7.325575e-04
7.407428e-04
7.782656e-04
7.705775e-04
8.021316e-04
8.088055e-04
8.390706e-04
8.331133e-04
8.172746e-04
7.929120e-04
7.851780e-04
8.332109e-04
8.415354e-04
8.386746e-04
8.335517e-04
8.413055e-04
7.554928e-04
7.403025e-04
7.175161e-04
7.254112e-04
7.254079e-04
7.250416e-04
7.329975e-04
7.482721e-04
7.712762e-04
7.480343e-04
7.329214e-04
8.417019e-04
8.416934e-04
7.484786e-04
7.409479e-04
7.400749e-04
7.329932e-04
7.402275e-04
7.783340e-04
7.939621e-04
7.858486e-04
7.858280e-04
7.864262e-04
7.937227e-04
8.470324e-04
8.178730e-04
8.483304e-04
8.391224e-04
7.402959e-04
7.176677e-04
7.100076e-04
8.330575e-04
8.251771e-04
7.860093e-04
7.477534e-04
7.175201e-04
7.177452e-04
7.254152e-04
7.329261e-04
7.484984e-04
7.562365e-04
7.718538e-04
7.405132e-04
8.493553e-04
8.493577e-04
7.407465e-04
7.332355e-04
7.332246e-04
7.404525e-04
7.327870e-04
7.405237e-04
7.857877e-04
8.010331e-04
8.481802e-04
8.156353e-04
7.100005e-04
7.634362e-04
8.461460e-04
8.389315e-04
7.552700e-04
7.175244e-04
7.100043e-04
7.176723e-04
8.396157e-04
8.492548e-04
8.163093e-04
7.100029e-04
7.176704e-04
7.100072e-04
7.176715e-04
7.100027e-04
7.252619e-04
7.477538e-04
7.480388e-04
7.555591e-04
8.491198e-04
8.493692e-04
7.250482e-04
7.329328e-04
7.332173e-04
7.327101e-04
7.329411e-04
7.177429e-04
7.100039e-04
7.176683e-04
8.389261e-04
8.384866e-04
7.176746e-04
7.551207e-04
8.384817e-04
8.466181e-04
7.479836e-04
7.251929e-04
7.176748e-04
7.717076e-04
8.402890e-04
8.404552e-04
8.231663e-04
7.329268e-04
7.177437e-04
7.177395e-04
7.254135e-04
7.251913e-04
7.100036e-04
7.251908e-04
7.250511e-04
7.327762e-04
8.262340e-04
8.417109e-04
7.327142e-04
7.330013e-04
7.329303e-04
7.252633e-04
7.177445e-04
7.100059e-04
7.100058e-04
7.175259e-04
8.303266e-04
8.466066e-04
7.177447e-04
7.477483e-04
8.305363e-04
8.384160e-04
7.251938e-04
7.252650e-04
7.638923e-04
7.794756e-04
8.406879e-04
8.397864e-04
8.154987e-04
7.175227e-04
7.100025e-04
7.177409e-04
7.254119e-04
7.100052e-04
7.251911e-04
7.100023e-04
7.327174e-04
7.327830e-04
8.337301e-04
8.417009e-04
7.250429e-04
7.404480e-04
7.330030e-04
7.252568e-04
7.175228e-04
7.177416e-04
7.100118e-04
7.177406e-04
8.079824e-04
8.320749e-04
7.559898e-04
8.154908e-04
8.408817e-04
8.492541e-04
7.930747e-04
7.554837e-04
7.865107e-04
8.413326e-04
8.400640e-04
8.227865e-04
8.079787e-04
7.626365e-04
7.100056e-04
7.100082e-04
7.100005e-04
7.177431e-04
7.175238e-04
7.325707e-04
7.409902e-04
7.329916e-04
8.184509e-04
8.416933e-04
7.325662e-04
7.330075e-04
7.250407e-04
7.252568e-04
7.176682e-04
7.100055e-04
7.175204e-04
7.176687e-04
7.860117e-04
8.169699e-04
8.083870e-04
8.479013e-04
8.470336e-04
8.254413e-04
8.487642e-04
8.159185e-04
8.488472e-04
8.411491e-04
8.156374e-04
8.002311e-04
7.854112e-04
7.551202e-04
7.175218e-04
7.100039e-04
7.100111e-04
7.175198e-04
7.332240e-04
7.485096e-04
7.487032e-04
7.555712e-04
8.334122e-04
8.416973e-04
7.252691e-04
7.330173e-04
7.252610e-04
7.329355e-04
7.175295e-04
7.176690e-04
7.175243e-04
7.100074e-04
7.402972e-04
7.785585e-04
8.012906e-04
7.858738e-04
7.175197e-04
7.402339e-04
8.090839e-04
8.090552e-04
8.168176e-04
7.781304e-04
7.706036e-04
7.626397e-04
7.551238e-04
7.252567e-04
7.099987e-04
7.100050e-04
7.100038e-04
7.175293e-04
7.405313e-04
7.484852e-04
7.480481e-04
7.554937e-04
8.107018e-04
8.414686e-04
7.254912e-04
7.329386e-04
7.252624e-04
7.250443e-04
7.100009e-04
7.100113e-04
7.176724e-04
7.100058e-04
7.176714e-04
7.403055e-04
7.402397e-04
7.100017e-04
7.100048e-04
7.329242e-04
7.477551e-04
7.553441e-04
7.634655e-04
7.557176e-04
7.330036e-04
7.177417e-04
7.252534e-04
7.100040e-04
7.176737e-04
7.100032e-04
7.100066e-04
7.100032e-04
7.400902e-04
7.563623e-04
7.476109e-04
7.554937e-04
8.183746e-04
8.414786e-04
7.254045e-04
7.100070e-04
7.329314e-04
7.329337e-04
7.175248e-04
7.251888e-04
7.176714e-04
7.251925e-04
7.100054e-04
7.100019e-04
7.175263e-04
7.175335e-04
7.100047e-04
7.252692e-04
7.407465e-04
7.482866e-04
7.482599e-04
7.405214e-04
7.406766e-04
7.177380e-04
7.250373e-04
7.176719e-04
7.100043e-04
7.176695e-04
7.100056e-04
7.251902e-04
7.477590e-04
7.332128e-04
7.327828e-04
7.400839e-04
8.337054e-04
8.417048e-04
7.254767e-04
7.327163e-04
7.252546e-04
7.250393e-04
7.100053e-04
7.251919e-04
7.254123e-04
7.175252e-04
7.175203e-04
7.100041e-04
7.176729e-04
7.177439e-04
7.175312e-04
7.254841e-04
7.332169e-04
7.479815e-04
7.403113e-04
7.409074e-04
7.327183e-04
7.100082e-04
7.100128e-04
7.100007e-04
7.177407e-04
7.100017e-04
7.176652e-04
7.100025e-04
7.481949e-04
7.552793e-04
7.477560e-04
7.404474e-04
8.339601e-04
8.416971e-04
7.252555e-04
7.327115e-04
7.250430e-04
7.175223e-04
7.175212e-04
7.251925e-04
7.100101e-04
7.176686e-04
7.100117e-04
7.176708e-04
7.100063e-04
7.177407e-04
7.100040e-04
7.177476e-04
7.331701e-04
7.404606e-04
7.251946e-04
7.254159e-04
7.327194e-04
7.175227e-04
7.175271e-04
7.100058e-04
7.100052e-04
7.176712e-04
7.100088e-04
7.406689e-04
7.639791e-04
7.478277e-04
7.630119e-04
7.405189e-04
8.338692e-04
8.417059e-04
7.176689e-04
7.100031e-04
7.176740e-04
7.100044e-04
7.100069e-04
7.100051e-04
7.176689e-04
7.100172e-04
7.175221e-04
7.100094e-04
7.327155e-04
7.250433e-04
7.175228e-04
7.250413e-04
7.477556e-04
7.703208e-04
7.701499e-04
8.079058e-04
8.229387e-04
8.302958e-04
8.384158e-04
7.853983e-04
7.100107e-04
7.100094e-04
7.329294e-04
7.867524e-04
7.787224e-04
7.480257e-04
7.405129e-04
7.783488e-04
8.484515e-04
8.493675e-04
7.252598e-04
7.176767e-04
7.175208e-04
7.175254e-04
7.100078e-04
7.100033e-04
7.100047e-04
7.252706e-04
7.325658e-04
7.403046e-04
7.557124e-04
7.405334e-04
7.402291e-04
7.409602e-04
7.711870e-04
7.787819e-04
8.014755e-04
8.236604e-04
8.391277e-04
8.389059e-04
8.472472e-04
8.414207e-04
8.175032e-04
8.096218e-04
8.407247e-04
8.405028e-04
7.937904e-04
7.705850e-04
7.860074e-04
7.635113e-04
8.414509e-04
8.412348e-04
7.476110e-04
7.175171e-04
7.177390e-04
7.177520e-04
7.251869e-04
7.100053e-04
7.252558e-04
7.325679e-04
7.327710e-04
7.559215e-04
7.327772e-04
7.406613e-04
7.402384e-04
7.479711e-04
7.478243e-04
7.787881e-04
7.560036e-04
7.562167e-04
7.329904e-04
7.175253e-04
7.252628e-04
7.708254e-04
8.387203e-04
8.389237e-04
8.389165e-04
7.778930e-04
7.632953e-04
7.632905e-04
7.786915e-04
7.641037e-04
8.337180e-04
8.027142e-04
7.626444e-04
7.254117e-04
7.329287e-04
7.250414e-04
7.177388e-04
7.100042e-04
7.100021e-04
7.327061e-04
7.407563e-04
7.563782e-04
7.254770e-04
7.557141e-04
7.484773e-04
7.561686e-04
7.938605e-04
8.013470e-04
7.632301e-04
7.329966e-04
7.327844e-04
7.175317e-04
7.175277e-04
7.177380e-04
7.482023e-04
7.478333e-04
7.176648e-04
7.100043e-04
7.252605e-04
7.483984e-04
7.482524e-04
7.559950e-04
8.261977e-04
8.029448e-04
7.703838e-04
7.176664e-04
7.175198e-04
7.329281e-04
7.254774e-04
7.177374e-04
7.176690e-04
7.100042e-04
7.175308e-04
7.405266e-04
7.554975e-04
7.487172e-04
7.404493e-04
7.100123e-04
8.006806e-04
8.241594e-04
7.705966e-04
7.479724e-04
7.402297e-04
7.406780e-04
7.331421e-04
7.251956e-04
7.175293e-04
7.175250e-04
7.100087e-04
7.176722e-04
7.100106e-04
7.252567e-04
7.405227e-04
7.480383e-04
8.262087e-04
8.414485e-04
8.412213e-04
8.414564e-04
8.491776e-04
8.416539e-04
8.414250e-04
8.414400e-04
8.416524e-04
8.494013e-04
8.414463e-04
8.493817e-04
8.416587e-04
8.490881e-04
8.416627e-04
8.416777e-04
8.416745e-04
8.493344e-04
8.416519e-04
8.491135e-04
8.414374e-04
8.259528e-04
8.414338e-04
8.493357e-04
8.494075e-04
8.416742e-04
8.494036e-04
8.416637e-04
8.416680e-04
8.416740e-04
8.416540e-04
8.416586e-04
8.416886e-04
8.416747e-04
8.407733e-04
8.416864e-04
8.416779e-04
8.338364e-04
8.184185e-04
8.261676e-04
8.416631e-04
8.416700e-04
8.414396e-04
8.414405e-04
8.493458e-04
8.414451e-04
8.409688e-04
8.106019e-04
8.403110e-04
8.416756e-04
8.493417e-04
8.416669e-04
8.334638e-04
8.488850e-04
8.494115e-04
8.416751e-04
8.412174e-04
8.414333e-04
8.416664e-04
8.339161e-04
8.416672e-04
8.416711e-04
8.416705e-04
8.416740e-04
8.416815e-04
8.181468e-04
7.788074e-04
7.407422e-04
7.254799e-04
7.332333e-04
7.327837e-04
7.332247e-04
7.252596e-04
7.482732e-04
7.555576e-04
7.329946e-04
7.175213e-04
7.252596e-04
7.637303e-04
7.789368e-04
8.097166e-04
7.783211e-04
7.480293e-04
7.327789e-04
7.407544e-04
7.329389e-04
7.100062e-04
7.177407e-04
7.100089e-04
7.100045e-04
7.252569e-04
7.177439e-04
7.177413e-04
7.254900e-04
7.557096e-04
7.559221e-04
8.337206e-04
8.184455e-04
7.630844e-04
7.484893e-04
7.327774e-04
7.330061e-04
7.329998e-04
7.332269e-04
7.325578e-04
7.630159e-04
7.481941e-04
7.329265e-04
7.404482e-04
7.479678e-04
7.482545e-04
7.482562e-04
7.712595e-04
7.557606e-04
7.407325e-04
7.330129e-04
7.402254e-04
7.327793e-04
7.329332e-04
7.250463e-04
7.254785e-04
7.250461e-04
7.175205e-04
7.327854e-04
7.327916e-04
7.330078e-04
7.486215e-04
7.405252e-04
8.416113e-04
8.416100e-04
7.405089e-04
7.560134e-04
7.329987e-04
7.176740e-04
7.250504e-04
7.250383e-04
7.177405e-04
7.633131e-04
7.782927e-04
7.254934e-04
7.479670e-04
7.481886e-04
7.484103e-04
7.559381e-04
7.482572e-04
7.407380e-04
7.480454e-04
7.633116e-04
7.633077e-04
7.480362e-04
7.402288e-04
7.175254e-04
7.327804e-04
7.325593e-04
7.252684e-04
7.481878e-04
7.480439e-04
7.557135e-04
7.557171e-04
7.408924e-04
8.339505e-04
8.414505e-04
7.406719e-04
7.480420e-04
7.486191e-04
7.254745e-04
7.406662e-04
7.327095e-04
7.099990e-04
7.778495e-04
7.858110e-04
7.252657e-04
7.329201e-04
7.479696e-04
7.404419e-04
7.329944e-04
7.332141e-04
7.332261e-04
7.408900e-04
7.860786e-04
8.010474e-04
7.785500e-04
7.630670e-04
7.405096e-04
7.482435e-04
7.635073e-04
7.710422e-04
7.787168e-04
7.555558e-04
7.557138e-04
7.634465e-04
7.559274e-04
8.416905e-04
8.494226e-04
7.409605e-04
7.486280e-04
7.408943e-04
7.407336e-04
7.329956e-04
7.329920e-04
7.175227e-04
7.701682e-04
7.783491e-04
7.406730e-04
7.553347e-04
7.557692e-04
7.632871e-04
7.862926e-04
7.635109e-04
7.712497e-04
7.792045e-04
8.170131e-04
8.251861e-04
8.324846e-04
8.242336e-04
7.939335e-04
7.935707e-04
8.163534e-04
8.315572e-04
8.092805e-04
8.012597e-04
7.860065e-04
7.940348e-04
7.871904e-04
8.414478e-04
8.414641e-04
7.479606e-04
7.404502e-04
7.252638e-04
7.254925e-04
7.327797e-04
7.405228e-04
7.632215e-04
7.639452e-04
7.639377e-04
7.859988e-04
7.862288e-04
7.781145e-04
7.786989e-04
7.855540e-04
7.785424e-04
7.856255e-04
7.933530e-04
8.010971e-04
8.010253e-04
8.086382e-04
8.165132e-04
7.778716e-04
8.158539e-04
8.013089e-04
8.010853e-04
8.014654e-04
8.008062e-04
7.930698e-04
7.865005e-04
7.702974e-04
8.416907e-04
8.417004e-04
7.252631e-04
7.100032e-04
7.176676e-04
7.327902e-04
7.405242e-04
7.556999e-04
7.711964e-04
7.789244e-04
7.402879e-04
7.557730e-04
7.630191e-04
7.332121e-04
7.330034e-04
7.175190e-04
7.403056e-04
7.402189e-04