# vtk DataFile Version 3.0
Cu single-crystal phase-field data
ASCII
DATASET STRUCTURED_POINTS
DIMENSIONS 32 32 16
ORIGIN 0 0 0
SPACING 5.000000e-07 5.000000e-07 5.000000e-07
POINT_DATA 16384
SCALARS crack float 1
LOOKUP_TABLE default
6.607111e-04
6.607126e-04
6.606365e-04
6.529800e-04
6.529664e-04
6.529671e-04
6.529782e-04
6.529735e-04
6.529690e-04
6.529822e-04
6.607113e-04
6.607118e-04
6.529742e-04
6.529701e-04
6.607103e-04
6.529694e-04
6.527476e-04
6.529699e-04
6.529932e-04
6.529889e-04
6.607108e-04
6.606415e-04
6.607098e-04
6.607108e-04
6.606375e-04
6.606372e-04
6.607125e-04
6.606361e-04
6.529711e-04
6.529643e-04
6.529725e-04
6.529831e-04
6.529664e-04
6.603865e-04
6.374794e-04
6.449840e-04
6.449857e-04
6.452117e-04
6.447648e-04
6.452189e-04
6.525145e-04
6.597347e-04
6.518343e-04
6.367094e-04
6.518297e-04
6.606365e-04
6.607092e-04
6.606410e-04
6.525218e-04
6.529856e-04
6.452422e-04
6.529790e-04
6.452268e-04
6.529592e-04
6.606381e-04
6.601788e-04
6.374735e-04
6.604690e-04
6.604860e-04
6.604044e-04
6.527430e-04
6.604096e-04
6.607077e-04
6.529865e-04
6.527354e-04
6.529539e-04
6.447613e-04
6.374786e-04
6.449183e-04
6.447590e-04
6.297193e-04
6.525163e-04
6.529700e-04
6.607110e-04
6.606377e-04
6.527400e-04
6.529600e-04
6.526813e-04
6.373468e-04
6.374600e-04
6.526576e-04
6.529594e-04
6.529713e-04
6.607061e-04
6.449927e-04
6.529730e-04
6.529616e-04
6.527333e-04
6.528835e-04
6.604812e-04
6.602519e-04
6.527449e-04
6.529522e-04
6.606979e-04
6.606332e-04
6.607138e-04
6.527414e-04
6.529628e-04
6.529282e-04
6.606356e-04
6.607071e-04
6.606309e-04
6.529596e-04
6.529567e-04
6.529804e-04
6.606160e-04
6.606325e-04
6.529754e-04
6.528792e-04
6.527276e-04
6.527341e-04
6.603966e-04
6.606958e-04
6.603944e-04
6.527612e-04
6.601716e-04
6.449840e-04
6.527355e-04
6.529599e-04
6.449874e-04
6.606352e-04
6.607072e-04
6.607071e-04
6.606242e-04
6.529544e-04
6.607060e-04
6.529612e-04
6.607114e-04
6.527370e-04
6.529508e-04
6.529633e-04
6.604107e-04
6.603851e-04
6.529554e-04
6.607006e-04
6.529665e-04
6.606308e-04
6.602442e-04
6.607059e-04
6.527358e-04
6.607042e-04
6.604762e-04
6.527433e-04
6.529602e-04
6.603920e-04
6.607034e-04
6.604000e-04
6.452123e-04
6.604014e-04
6.529594e-04
6.529595e-04
6.527356e-04
6.529693e-04
6.606352e-04
6.529674e-04
6.606307e-04
6.606295e-04
6.603967e-04
6.529503e-04
6.606405e-04
6.527446e-04
6.529836e-04
6.606358e-04
6.607049e-04
6.604749e-04
6.452121e-04
6.606207e-04
6.529709e-04
6.529625e-04
6.603917e-04
6.606149e-04
6.527468e-04
6.606926e-04
6.604779e-04
6.601810e-04
6.529647e-04
6.529594e-04
6.529646e-04
6.527242e-04
6.601736e-04
6.522769e-04
6.529492e-04
6.529610e-04
6.529629e-04
6.529710e-04
6.529719e-04
6.528818e-04
6.606981e-04
6.606209e-04
6.527318e-04
6.529517e-04
6.604056e-04
6.529646e-04
6.527466e-04
6.529646e-04
6.606391e-04
6.525057e-04
6.526556e-04
6.529599e-04
6.606343e-04
6.529720e-04
6.529692e-04
6.607108e-04
6.529782e-04
6.529603e-04
6.606267e-04
6.607096e-04
6.523028e-04
6.368001e-04
6.515952e-04
6.517511e-04
6.522765e-04
6.367916e-04
6.524759e-04
6.529582e-04
6.606978e-04
6.529215e-04
6.527148e-04
6.529554e-04
6.604031e-04
6.527474e-04
6.529646e-04
6.606368e-04
6.607114e-04
6.529729e-04
6.529632e-04
6.529575e-04
6.529591e-04
6.527353e-04
6.601830e-04
6.600285e-04
6.600277e-04
6.522930e-04
6.513831e-04
6.523013e-04
6.607118e-04
6.529657e-04
6.529806e-04
6.529624e-04
6.452068e-04
6.604095e-04
6.526488e-04
6.607068e-04
6.526618e-04
6.449954e-04
6.297409e-04
6.525187e-04
6.607102e-04
6.529611e-04
6.606358e-04
6.529635e-04
6.527380e-04
6.525120e-04
6.452201e-04
6.452124e-04
6.606437e-04
6.529681e-04
6.529717e-04
6.529670e-04
6.529688e-04
6.529484e-04
6.527551e-04
6.606313e-04
6.529520e-04
6.529557e-04
6.607084e-04
6.529738e-04
6.529651e-04
6.607086e-04
6.529644e-04
6.607034e-04
6.607028e-04
6.607017e-04
6.604068e-04
6.606280e-04
6.529704e-04
6.529666e-04
6.529655e-04
6.527333e-04
6.529603e-04
6.607038e-04
6.607057e-04
6.606346e-04
6.529696e-04
6.529620e-04
6.529727e-04
6.529654e-04
6.606418e-04
6.529614e-04
6.529613e-04
6.529546e-04
6.529607e-04
6.604776e-04
6.527345e-04
6.607073e-04
6.529700e-04
6.606317e-04
6.527469e-04
6.607005e-04
6.529628e-04
6.527264e-04
6.529668e-04
6.529556e-04
6.529614e-04
6.606337e-04
6.606390e-04
6.529549e-04
6.606336e-04
6.527401e-04
6.529635e-04
6.528872e-04
6.529519e-04
6.529693e-04
6.606377e-04
6.606215e-04
6.527466e-04
6.452225e-04
6.527365e-04
6.606350e-04
6.607126e-04
6.529698e-04
6.529602e-04
6.529649e-04
6.529659e-04
6.529548e-04
6.529571e-04
6.529701e-04
6.606352e-04
6.607096e-04
6.528898e-04
6.527461e-04
6.604090e-04
6.527394e-04
6.529622e-04
6.529695e-04
6.529725e-04
6.606368e-04
6.607036e-04
6.529653e-04
6.607018e-04
6.606265e-04
6.606346e-04
6.607048e-04
6.604032e-04
6.529634e-04
6.606315e-04
6.607066e-04
6.451361e-04
6.449863e-04
6.452143e-04
6.527379e-04
6.604133e-04
6.529781e-04
6.452200e-04
6.529634e-04
6.606347e-04
6.529659e-04
6.525115e-04
6.524920e-04
6.529756e-04
6.606271e-04
6.527456e-04
6.604063e-04
6.602551e-04
6.604014e-04
6.529723e-04
6.529702e-04
6.529536e-04
6.529644e-04
6.606339e-04
6.529738e-04
6.606267e-04
6.529669e-04
6.529588e-04
6.601817e-04
6.529498e-04
6.529581e-04
6.529608e-04
6.606246e-04
6.449929e-04
6.449568e-04
6.449761e-04
6.604818e-04
6.527530e-04
6.529797e-04
6.529547e-04
6.606307e-04
6.607043e-04
6.607038e-04
6.529696e-04
6.527303e-04
6.607032e-04
6.601841e-04
6.449830e-04
6.529580e-04
6.604020e-04
6.529652e-04
6.529896e-04
6.606306e-04
6.529632e-04
6.452126e-04
6.529676e-04
6.529801e-04
6.452096e-04
6.606388e-04
6.529778e-04
6.607052e-04
6.529604e-04
6.529651e-04
6.452149e-04
6.449942e-04
6.370185e-04
6.442317e-04
6.447758e-04
6.452197e-04
6.527443e-04
6.529673e-04
6.527366e-04
6.525114e-04
6.606354e-04
6.529547e-04
6.527355e-04
6.604841e-04
6.606999e-04
6.449773e-04
6.446844e-04
6.372346e-04
6.517929e-04
6.529782e-04
6.607024e-04
6.607056e-04
6.606322e-04
6.529689e-04
6.452224e-04
6.527554e-04
6.606386e-04
6.607038e-04
6.529742e-04
6.607062e-04
6.606345e-04
6.529616e-04
6.452180e-04
6.374752e-04
6.371695e-04
6.443008e-04
6.524397e-04
6.529629e-04
6.529742e-04
6.529707e-04
6.524918e-04
6.297295e-04
6.374697e-04
6.529655e-04
6.449854e-04
6.524969e-04
6.606324e-04
6.372431e-04
6.452089e-04
6.604700e-04
6.445334e-04
6.605536e-04
6.607080e-04
6.607039e-04
6.529029e-04
6.529520e-04
6.529500e-04
6.529639e-04
6.529498e-04
6.604071e-04
6.527422e-04
6.606320e-04
6.452141e-04
6.527327e-04
6.529552e-04
6.526606e-04
6.452112e-04
6.442296e-04
6.447582e-04
6.452178e-04
6.529776e-04
6.529741e-04
6.219962e-04
6.297215e-04
6.297295e-04
6.372574e-04
6.374741e-04
6.445369e-04
6.606428e-04
6.447521e-04
6.599534e-04
6.607078e-04
6.529570e-04
6.529717e-04
6.602551e-04
6.525180e-04
6.529570e-04
6.529622e-04
6.529714e-04
6.606310e-04
6.529645e-04
6.597590e-04
6.529262e-04
6.529652e-04
6.529732e-04
6.452184e-04
6.529517e-04
6.607087e-04
6.526605e-04
6.297166e-04
6.524897e-04
6.527490e-04
6.529752e-04
6.606458e-04
6.529851e-04
6.529837e-04
6.374684e-04
6.451365e-04
6.450014e-04
6.452128e-04
6.529727e-04
6.607135e-04
6.529293e-04
6.529680e-04
6.529665e-04
6.529739e-04
6.449948e-04
6.452145e-04
6.527375e-04
6.529811e-04
6.607023e-04
6.607081e-04
6.606326e-04
5.755072e-04
6.511116e-04
6.607064e-04
6.529610e-04
6.606312e-04
6.607042e-04
6.607020e-04
6.529703e-04
6.452194e-04
6.529670e-04
6.522860e-04
6.529898e-04
6.607195e-04
6.606356e-04
6.529674e-04
6.604086e-04
6.452185e-04
6.528867e-04
6.529697e-04
6.529689e-04
6.529646e-04
6.529718e-04
6.529546e-04
6.529772e-04
6.529749e-04
6.372468e-04
6.452053e-04
6.604844e-04
6.607057e-04
6.607121e-04
6.607086e-04
6.064873e-04
5.600197e-04
6.504687e-04
6.529708e-04
6.529655e-04
6.452210e-04
6.528869e-04
6.529637e-04
6.529804e-04
6.529650e-04
6.606437e-04
6.374704e-04
6.529948e-04
6.606401e-04
6.529593e-04
6.607046e-04
6.607066e-04
6.604060e-04
6.529667e-04
6.606364e-04
6.529656e-04
6.529661e-04
6.452211e-04
6.525214e-04
6.607106e-04
6.529727e-04
6.372459e-04
6.529750e-04
6.607122e-04
6.607144e-04
6.607126e-04
6.140075e-04
5.907695e-04
5.600192e-04
6.502449e-04
6.529686e-04
6.529766e-04
6.529737e-04
6.529742e-04
6.607042e-04
6.529705e-04
6.606330e-04
6.607099e-04
6.526618e-04
6.529676e-04
6.529708e-04
6.529619e-04
6.604070e-04
6.529562e-04
6.604068e-04
6.606338e-04
6.607053e-04
6.606357e-04
6.529608e-04
6.529713e-04
6.529546e-04
6.529734e-04
6.527503e-04
6.447911e-04
6.370054e-04
6.529704e-04
6.528955e-04
6.527385e-04
6.064931e-04
5.597945e-04
5.673076e-04
5.980325e-04
6.526849e-04
6.529712e-04
6.529788e-04
6.529718e-04
6.529600e-04
6.529704e-04
6.529689e-04
6.606422e-04
6.525109e-04
6.529670e-04
6.529799e-04
6.529648e-04
6.529816e-04
6.528855e-04
6.606356e-04
6.529633e-04
6.607057e-04
6.529896e-04
6.607094e-04
6.529663e-04
6.529685e-04
6.607043e-04
6.525211e-04
6.515962e-04
6.588685e-04
6.527444e-04
6.527440e-04
6.374890e-04
5.898727e-04
5.900847e-04
5.980507e-04
6.062413e-04
6.449505e-04
6.527500e-04
6.529717e-04
6.529684e-04
6.529691e-04
6.452192e-04
6.297351e-04
6.447641e-04
6.452202e-04
6.529766e-04
6.529739e-04
6.529688e-04
6.452191e-04
6.451367e-04
6.607071e-04
6.606339e-04
6.529671e-04
6.529661e-04
6.529593e-04
6.527498e-04
6.529826e-04
6.529648e-04
6.529553e-04
6.606413e-04
6.606065e-04
6.369992e-04
6.374559e-04
6.060304e-04
6.367071e-04
6.363456e-04
6.515988e-04
6.451761e-04
6.529438e-04
6.529716e-04
6.529716e-04
6.529796e-04
6.529739e-04
6.452223e-04
6.295095e-04
6.370263e-04
6.529686e-04
6.607174e-04
6.529760e-04
6.527426e-04
6.527230e-04
6.452240e-04
6.606356e-04
6.529767e-04
6.529710e-04
6.529622e-04
6.607058e-04
6.529661e-04
6.527357e-04
6.529807e-04
6.606399e-04
6.607124e-04
6.602594e-04
6.446771e-04
6.217534e-04
6.218889e-04
6.527269e-04
6.604748e-04
6.527409e-04
6.449898e-04
6.529669e-04
6.529682e-04
6.529652e-04
6.529682e-04
6.529728e-04
6.529687e-04
6.294935e-04
6.295014e-04
6.374696e-04
6.529857e-04
6.529669e-04
6.529616e-04
6.607054e-04
6.527391e-04
6.529588e-04
6.529673e-04
6.529698e-04
6.452140e-04
6.529584e-04
6.452143e-04
6.529567e-04
6.529720e-04
6.529616e-04
6.606386e-04
6.604026e-04
6.372327e-04
6.528698e-04
6.452141e-04
6.606960e-04
6.607017e-04
6.604126e-04
6.527342e-04
6.529720e-04
6.607079e-04
6.529678e-04
6.529683e-04
6.529634e-04
6.604121e-04
6.449853e-04
6.452050e-04
6.604127e-04
6.529737e-04
6.529693e-04
6.529599e-04
6.529498e-04
6.449955e-04
6.529622e-04
6.529583e-04
6.529607e-04
6.529572e-04
6.529587e-04
6.529573e-04
6.529646e-04
6.529736e-04
6.527551e-04
6.529667e-04
6.529521e-04
6.606194e-04
6.606955e-04
6.606188e-04
6.606286e-04
6.606360e-04
6.529811e-04
6.529637e-04
6.606328e-04
6.607063e-04
6.606275e-04
6.529604e-04
6.606318e-04
6.607079e-04
6.603801e-04
6.606312e-04
6.607095e-04
6.607120e-04
6.527441e-04
6.529522e-04
6.529612e-04
6.529604e-04
6.529558e-04
6.529604e-04
6.529563e-04
6.607018e-04
6.529652e-04
6.529602e-04
6.529614e-04
6.607037e-04
6.529610e-04
6.529777e-04
6.529695e-04
6.606222e-04
6.604070e-04
6.603984e-04
6.525134e-04
6.528856e-04
6.529705e-04
6.527378e-04
6.529621e-04
6.606311e-04
6.529668e-04
6.607039e-04
6.606385e-04
6.527487e-04
6.529596e-04
6.529761e-04
6.606330e-04
6.607132e-04
6.529682e-04
6.529591e-04
6.607015e-04
6.529593e-04
6.529561e-04
6.529580e-04
6.529565e-04
6.529617e-04
6.529667e-04
6.529715e-04
6.529648e-04
6.529620e-04
6.529676e-04
6.529611e-04
6.606348e-04
6.607097e-04
6.528853e-04
6.525216e-04
6.604172e-04
6.529662e-04
6.529682e-04
6.601803e-04
6.529520e-04
6.529648e-04
6.529758e-04
6.606278e-04
6.606964e-04
6.606956e-04
6.604034e-04
6.606969e-04
6.607071e-04
6.607086e-04
6.601849e-04
6.529571e-04
6.529685e-04
6.529607e-04
6.529713e-04
6.606304e-04
6.529636e-04
6.529561e-04
6.529600e-04
6.529606e-04
6.529674e-04
6.529662e-04
6.529743e-04
6.529538e-04
6.527343e-04
6.606278e-04
6.607010e-04
6.529559e-04
6.606244e-04
6.529587e-04
6.606342e-04
6.607064e-04
6.603697e-04
6.590392e-04
6.513794e-04
6.513251e-04
6.600228e-04
6.604689e-04
6.606279e-04
6.529521e-04
6.529558e-04
6.606362e-04
6.604807e-04
6.606372e-04
6.529733e-04
6.527276e-04
6.528804e-04
6.607007e-04
6.606269e-04
6.529588e-04
6.529582e-04
6.529611e-04
6.529599e-04
6.529589e-04
6.529601e-04
6.529564e-04
6.527366e-04
6.529699e-04
6.529594e-04
6.606299e-04
6.607074e-04
6.606342e-04
6.529651e-04
6.606305e-04
6.606373e-04
6.607001e-04
6.606400e-04
6.529705e-04
6.529725e-04
6.606376e-04
6.604097e-04
6.606187e-04
6.606967e-04
6.607091e-04
6.604103e-04
6.529717e-04
6.529579e-04
6.529549e-04
6.529480e-04
6.606265e-04
6.529625e-04
6.529534e-04
6.529664e-04
6.529606e-04
6.606217e-04
6.529571e-04
6.606971e-04
6.607055e-04
6.529631e-04
6.524857e-04
6.529395e-04
6.529580e-04
6.607065e-04
6.529613e-04
6.527447e-04
6.606295e-04
6.529852e-04
6.601814e-04
6.445340e-04
6.529657e-04
6.529797e-04
6.604107e-04
6.529584e-04
6.606345e-04
6.606369e-04
6.529760e-04
6.527445e-04
6.525089e-04
6.527371e-04
6.529558e-04
6.452191e-04
6.529515e-04
6.529728e-04
6.529595e-04
6.607006e-04
6.529805e-04
6.607032e-04
6.604761e-04
6.606945e-04
6.604040e-04
6.529653e-04
6.529726e-04
6.606197e-04
6.529623e-04
6.529642e-04
6.529570e-04
6.526501e-04
6.606955e-04
6.528798e-04
6.525008e-04
6.529461e-04
6.607092e-04
6.529643e-04
6.529598e-04
6.604028e-04
6.527386e-04
6.529771e-04
6.529844e-04
6.452415e-04
6.529689e-04
6.529714e-04
6.527411e-04
6.529664e-04
6.529679e-04
6.529631e-04
6.529608e-04
6.529666e-04
6.529671e-04
6.529696e-04
6.606331e-04
6.607070e-04
6.606370e-04
6.529722e-04
6.606371e-04
6.607086e-04
6.528862e-04
6.529668e-04
6.529630e-04
6.529688e-04
6.607068e-04
6.529846e-04
6.529846e-04
6.529706e-04
6.529693e-04
6.529677e-04
6.529746e-04
6.529904e-04
6.529740e-04
6.529754e-04
6.529707e-04
6.607153e-04
6.597363e-04
6.449966e-04
6.452237e-04
6.372465e-04
6.297271e-04
6.297292e-04
6.452144e-04
6.525162e-04
6.529603e-04
6.607010e-04
6.604830e-04
6.606315e-04
6.606447e-04
6.607114e-04
6.606480e-04
6.529579e-04
6.529805e-04
6.529904e-04
6.601814e-04
6.604859e-04
6.604102e-04
6.606417e-04
6.526635e-04
6.527376e-04
6.529795e-04
6.606373e-04
6.529686e-04
6.529722e-04
6.529691e-04
6.607107e-04
6.529903e-04
6.217613e-04
6.364600e-04
5.825693e-04
5.673063e-04
5.752640e-04
5.750476e-04
5.754965e-04
5.748330e-04
5.827844e-04
6.057981e-04
6.130316e-04
6.203821e-04
6.062256e-04
6.060438e-04
6.212565e-04
6.522527e-04
6.504762e-04
5.522805e-04
5.522744e-04
5.751872e-04
5.754152e-04
5.676778e-04
5.522707e-04
5.675270e-04
5.675279e-04
5.675301e-04
5.599372e-04
5.597990e-04
5.597937e-04
5.599377e-04
5.522745e-04
6.607261e-04
6.374025e-04
6.130866e-04
5.903133e-04
5.675252e-04
5.754844e-04
5.754853e-04
5.754785e-04
5.597945e-04
6.050635e-04
5.905227e-04
5.905183e-04
5.823467e-04
5.978193e-04
6.289935e-04
6.444118e-04
6.513540e-04
5.900858e-04
5.598014e-04
5.599277e-04
5.522730e-04
5.752000e-04
5.600112e-04
5.597930e-04
5.673135e-04
5.597901e-04
5.749799e-04
5.749815e-04
5.597869e-04
5.597892e-04
5.674586e-04
5.675266e-04
6.607177e-04
6.452261e-04
5.900834e-04
6.060079e-04
5.827896e-04
5.674655e-04
5.748318e-04
5.825026e-04
5.673093e-04
6.207541e-04
6.287244e-04
5.752711e-04
5.750554e-04
5.981915e-04
5.903061e-04
6.053537e-04
5.905235e-04
5.827125e-04
5.676760e-04
5.598074e-04
5.673106e-04
5.673096e-04
5.597888e-04
5.597863e-04
5.673089e-04
5.673141e-04
5.675315e-04
5.522729e-04
5.599346e-04
5.676732e-04
5.673084e-04
5.677509e-04
6.529748e-04
6.527473e-04
5.752821e-04
5.675281e-04
5.898687e-04
5.907645e-04
5.831730e-04
5.522672e-04
5.599429e-04
6.199597e-04
6.360351e-04
5.675309e-04
5.750421e-04
5.675275e-04
5.748283e-04
5.752644e-04
5.752788e-04
5.754254e-04
5.522688e-04
5.597960e-04
5.674598e-04
5.674612e-04
5.522730e-04
5.522722e-04
5.597915e-04
5.597904e-04
5.673085e-04
5.751975e-04
5.675246e-04
5.750558e-04
5.906950e-04
5.903145e-04
6.529779e-04
6.529673e-04
5.979700e-04
5.903077e-04
5.829983e-04
5.597897e-04
5.831651e-04
5.829518e-04
5.522668e-04
5.973875e-04
6.219440e-04
6.357995e-04
6.279069e-04
6.356303e-04
6.435293e-04
6.431031e-04
6.208228e-04
6.130898e-04
6.130092e-04
6.126377e-04
6.276882e-04
6.276785e-04
6.124216e-04
6.049010e-04
6.050521e-04
6.201521e-04
6.504550e-04
6.581375e-04
6.282748e-04
6.206029e-04
6.431739e-04
6.358716e-04
6.527334e-04
6.527549e-04
5.900818e-04
5.823435e-04
5.752692e-04
5.829397e-04
5.673045e-04
5.904585e-04
5.977594e-04
5.748233e-04
6.205350e-04
6.130837e-04
6.360730e-04
6.357861e-04
6.355649e-04
6.205898e-04
6.437445e-04
6.433741e-04
6.506646e-04
6.589948e-04
6.429259e-04
6.510345e-04
6.510975e-04
6.430790e-04
6.581263e-04
6.592296e-04
6.504507e-04
6.506680e-04
6.203814e-04
6.430930e-04
6.360069e-04
6.048986e-04
6.606469e-04
6.529851e-04
5.597890e-04
5.599386e-04
5.600046e-04
5.673102e-04
5.832141e-04
5.984886e-04
6.139166e-04
6.216559e-04
6.293580e-04
6.217360e-04
5.907525e-04
5.825708e-04
5.673091e-04
5.748302e-04
5.906819e-04
5.748235e-04
5.980407e-04
6.057068e-04
5.979943e-04
5.980338e-04
6.057136e-04
6.134798e-04
6.130156e-04
5.976081e-04
5.748242e-04
5.754824e-04
5.907513e-04
5.907489e-04
5.749846e-04
5.673080e-04
6.529866e-04
6.529879e-04
5.674682e-04
5.597882e-04
5.677414e-04
5.906764e-04
5.825701e-04
5.904565e-04
5.984089e-04
6.054993e-04
5.673089e-04
6.133019e-04
6.212798e-04
5.977606e-04
5.597989e-04
5.749798e-04
5.829355e-04
5.674543e-04
5.754924e-04
5.673058e-04
5.673046e-04
5.673071e-04
5.748293e-04
5.750483e-04
5.600082e-04
5.522711e-04
5.600100e-04
5.597916e-04
5.597973e-04
5.748260e-04
5.673071e-04
5.825775e-04
6.525446e-04
6.527516e-04
5.673118e-04
5.673087e-04
5.829373e-04
5.673075e-04
5.675399e-04
5.825753e-04
5.902404e-04
5.600078e-04
5.752632e-04
5.827867e-04
6.209836e-04
5.975515e-04
5.597882e-04
5.674564e-04
5.754282e-04
5.750507e-04
5.677511e-04
5.597969e-04
5.600047e-04
5.675244e-04
5.754166e-04
5.752702e-04
5.750459e-04
5.674678e-04
5.600106e-04
5.827984e-04
5.905315e-04
5.825741e-04
5.903111e-04
5.900829e-04
6.604270e-04
6.529865e-04
5.522706e-04
5.600137e-04
5.677460e-04
5.829382e-04
5.677544e-04
5.979779e-04
5.898797e-04
5.676681e-04
5.825662e-04
6.285001e-04
6.137586e-04
5.900943e-04
5.522731e-04
5.522761e-04
5.674623e-04
5.673137e-04
5.599394e-04
5.522756e-04
5.599358e-04
5.675254e-04
5.677442e-04
5.831581e-04
5.675261e-04
5.597902e-04
5.675306e-04
5.904623e-04
5.984078e-04
5.903001e-04
5.829962e-04
5.751932e-04
6.527676e-04
6.529678e-04
5.752700e-04
5.597901e-04
5.600109e-04
5.754144e-04
5.830271e-04
6.128696e-04
5.977518e-04
5.750459e-04
6.281247e-04
6.210526e-04
6.211871e-04
5.827945e-04
5.597905e-04
5.522716e-04
5.522716e-04
5.597905e-04
5.522728e-04
5.522716e-04
5.597966e-04
5.599384e-04
5.675305e-04
5.752038e-04
5.597911e-04
5.522686e-04
5.673092e-04
5.825708e-04
5.832231e-04
5.980545e-04
5.979806e-04
5.675337e-04
6.604978e-04
6.450173e-04
5.830212e-04
5.677439e-04
5.600084e-04
5.522737e-04
5.827194e-04
6.208262e-04
5.978226e-04
6.368886e-04
6.366639e-04
6.296670e-04
6.214984e-04
5.900949e-04
5.522816e-04
5.522708e-04
5.597871e-04
5.597937e-04
5.600092e-04
5.600193e-04
5.597963e-04
5.597968e-04
5.599427e-04
5.522735e-04
5.599443e-04
5.597897e-04
5.675309e-04
5.748315e-04
5.907450e-04
6.055754e-04
5.825738e-04
5.600167e-04
6.527585e-04
6.450111e-04
5.829352e-04
5.755041e-04
5.677415e-04
5.675337e-04
5.829356e-04
6.128619e-04
6.130913e-04
6.442108e-04
6.210295e-04
6.521405e-04
6.449474e-04
5.673126e-04
5.522714e-04
5.599390e-04
5.522773e-04
6.276789e-04
6.504795e-04
6.504542e-04
5.673083e-04
5.674625e-04
5.597915e-04
5.599405e-04
5.522669e-04
5.600064e-04
5.751919e-04
5.750481e-04
6.059410e-04
6.132381e-04
5.902330e-04
5.673080e-04
6.607241e-04
6.526793e-04
5.976212e-04
5.827894e-04
5.755104e-04
5.748273e-04
5.830133e-04
6.205377e-04
6.128516e-04
6.444030e-04
6.510775e-04
6.587895e-04
6.451012e-04
6.292621e-04
6.051187e-04
5.973835e-04
6.445132e-04
6.528725e-04
6.508840e-04
6.448883e-04
6.526375e-04
5.977606e-04
5.825718e-04
5.597835e-04
5.676779e-04
5.676753e-04
5.673102e-04
5.752668e-04
5.905421e-04
6.135433e-04
5.903058e-04
5.751912e-04
6.529879e-04
6.529797e-04
5.907492e-04
5.832180e-04
5.823453e-04
5.752623e-04
5.824977e-04
6.206054e-04
6.362324e-04
6.281222e-04
6.055494e-04
5.977515e-04
6.057074e-04
6.592357e-04
6.292085e-04
6.596613e-04
6.513246e-04
5.825663e-04
5.599351e-04
5.522738e-04
6.443876e-04
6.369376e-04
6.282772e-04
5.900214e-04
5.597875e-04
5.600126e-04
5.676828e-04
5.751945e-04
5.907679e-04
5.985048e-04
6.141223e-04
5.827842e-04
6.606420e-04
6.606424e-04
5.830165e-04
5.755048e-04
5.754935e-04
5.827218e-04
5.750568e-04
5.827947e-04
6.280584e-04
6.433035e-04
6.603760e-04
6.276181e-04
5.522667e-04
6.057074e-04
6.583429e-04
6.511275e-04
5.975392e-04
5.597919e-04
5.522706e-04
5.599398e-04
6.518112e-04
6.605754e-04
6.585774e-04
5.522691e-04
5.599378e-04
5.522734e-04
5.599390e-04
5.522689e-04
5.675305e-04
5.900222e-04
5.903072e-04
5.978289e-04
6.604043e-04
6.606520e-04
5.673164e-04
5.752014e-04
5.754854e-04
5.749783e-04
5.752093e-04
5.600104e-04
5.522701e-04
5.599357e-04
6.511197e-04
6.504642e-04
5.599420e-04
5.973909e-04
6.506762e-04
6.588124e-04
5.902517e-04
5.674603e-04
5.599423e-04
6.139792e-04
6.524869e-04
6.517825e-04
6.579171e-04
5.751951e-04
5.600111e-04
5.600070e-04
5.676801e-04
5.674587e-04
5.522698e-04
5.674584e-04
5.673175e-04
5.750456e-04
6.375174e-04
6.529930e-04
5.749820e-04
5.752690e-04
5.751979e-04
5.675306e-04
5.600120e-04
5.522721e-04
5.522720e-04
5.597934e-04
6.500362e-04
6.579212e-04
5.522762e-04
5.900181e-04
6.427300e-04
6.506107e-04
5.674610e-04
5.675318e-04
6.061620e-04
6.217459e-04
6.520174e-04
6.511126e-04
6.502493e-04
5.597901e-04
5.522687e-04
5.600083e-04
5.676796e-04
5.522714e-04
5.674590e-04
5.522685e-04
5.749853e-04
5.750498e-04
6.450145e-04
6.529847e-04
5.673107e-04
5.827159e-04
5.752702e-04
5.675253e-04
5.597898e-04
5.600089e-04
5.522781e-04
5.600081e-04
6.502479e-04
6.511274e-04
5.673115e-04
6.274683e-04
6.522117e-04
6.605843e-04
6.052770e-04
5.752008e-04
6.062315e-04
6.526661e-04
6.513604e-04
6.500233e-04
6.502477e-04
6.049070e-04
5.522718e-04
5.522744e-04
5.522668e-04
5.600100e-04
5.597904e-04
5.748383e-04
5.832563e-04
5.752603e-04
6.297362e-04
6.529782e-04
5.748341e-04
5.752755e-04
5.673091e-04
5.675245e-04
5.599352e-04
5.522717e-04
5.597879e-04
5.599362e-04
6.282798e-04
6.592375e-04
6.281078e-04
6.601031e-04
6.592381e-04
6.374279e-04
6.605252e-04
6.274621e-04
6.603903e-04
6.529078e-04
6.579096e-04
6.425029e-04
6.276819e-04
5.973912e-04
5.597893e-04
5.522702e-04
5.522773e-04
5.597872e-04
5.754918e-04
5.907782e-04
5.909712e-04
5.978394e-04
6.446973e-04
6.529819e-04
5.675363e-04
5.752863e-04
5.675283e-04
5.752033e-04
5.597967e-04
5.599361e-04
5.597917e-04
5.522737e-04
5.825665e-04
6.208263e-04
6.435580e-04
6.281423e-04
5.597871e-04
5.825016e-04
6.513518e-04
6.438048e-04
6.515680e-04
6.203996e-04
6.128730e-04
6.049088e-04
5.973918e-04
5.675248e-04
5.522650e-04
5.522712e-04
5.522701e-04
5.597962e-04
5.827980e-04
5.907533e-04
5.903142e-04
5.977617e-04
6.219874e-04
6.527528e-04
5.677590e-04
5.752064e-04
5.675304e-04
5.673126e-04
5.522671e-04
5.522775e-04
5.599392e-04
5.522720e-04
5.599389e-04
5.825726e-04
5.825074e-04
5.522679e-04
5.522710e-04
5.751919e-04
5.900232e-04
5.976119e-04
6.057315e-04
5.979829e-04
5.752716e-04
5.600090e-04
5.675220e-04
5.522703e-04
5.599412e-04
5.522695e-04
5.522728e-04
5.522694e-04
5.823567e-04
5.986287e-04
5.898764e-04
5.977616e-04
6.296580e-04
6.527594e-04
5.676731e-04
5.522733e-04
5.751996e-04
5.752015e-04
5.597923e-04
5.674562e-04
5.599387e-04
5.674600e-04
5.522716e-04
5.522682e-04
5.597930e-04
5.598003e-04
5.522709e-04
5.675372e-04
5.830133e-04
5.905528e-04
5.905259e-04
5.827880e-04
5.829436e-04
5.600055e-04
5.673059e-04
5.599393e-04
5.522705e-04
5.599369e-04
5.522718e-04
5.674567e-04
5.900245e-04
5.754805e-04
5.750503e-04
5.823517e-04
6.449872e-04
6.529862e-04
5.677452e-04
5.749841e-04
5.675229e-04
5.673079e-04
5.522715e-04
5.674593e-04
5.676791e-04
5.597926e-04
5.597877e-04
5.522703e-04
5.599400e-04
5.600114e-04
5.597987e-04
5.677525e-04
5.754847e-04
5.902470e-04
5.825775e-04
5.831714e-04
5.749830e-04
5.522744e-04
5.522790e-04
5.522669e-04
5.600081e-04
5.522679e-04
5.599326e-04
5.522688e-04
5.904611e-04
5.975454e-04
5.900239e-04
5.827157e-04
6.452412e-04
6.529792e-04
5.675241e-04
5.749796e-04
5.673113e-04
5.597897e-04
5.597886e-04
5.674597e-04
5.522763e-04
5.599361e-04
5.522780e-04
5.599382e-04
5.522725e-04
5.600081e-04
5.522702e-04
5.600150e-04
5.754354e-04
5.827256e-04
5.674611e-04
5.676819e-04
5.749838e-04
5.597887e-04
5.597919e-04
5.522721e-04
5.522715e-04
5.599387e-04
5.522750e-04
5.829349e-04
6.062446e-04
5.900957e-04
6.052805e-04
5.827895e-04
6.451524e-04
6.529895e-04
5.599362e-04
5.522693e-04
5.599412e-04
5.522707e-04
5.522731e-04
5.522713e-04
5.599359e-04
5.522834e-04
5.597895e-04
5.522756e-04
5.749827e-04
5.673108e-04
5.597902e-04
5.673097e-04
5.900233e-04
6.125881e-04
6.124215e-04
6.501760e-04
6.576922e-04
6.500157e-04
6.581320e-04
6.126359e-04
5.522770e-04
5.522757e-04
5.751967e-04
6.290198e-04
6.209887e-04
5.902979e-04
5.827840e-04
6.206182e-04
6.597328e-04
6.606546e-04
5.675276e-04
5.599439e-04
5.597878e-04
5.597927e-04
5.522740e-04
5.522695e-04
5.522709e-04
5.675386e-04
5.748343e-04
5.825727e-04
5.979809e-04
5.828018e-04
5.824983e-04
5.832289e-04
6.134560e-04
6.210526e-04
6.437486e-04
6.506818e-04
6.506645e-04
6.506706e-04
6.590191e-04
6.529479e-04
6.292598e-04
6.216135e-04
6.529290e-04
6.527053e-04
6.135150e-04
6.053427e-04
6.282809e-04
6.057850e-04
6.527387e-04
6.525210e-04
5.898792e-04
5.597845e-04
5.600065e-04
5.600187e-04
5.674544e-04
5.522715e-04
5.675244e-04
5.748368e-04
5.750405e-04
5.981903e-04
5.750461e-04
5.829318e-04
5.825055e-04
5.902396e-04
5.900898e-04
6.210525e-04
5.830081e-04
5.675284e-04
5.522699e-04
5.522742e-04
5.600116e-04
5.980589e-04
6.509185e-04
6.511220e-04
6.511170e-04
5.898708e-04
5.748357e-04
5.823493e-04
6.057122e-04
6.063750e-04
6.450056e-04
6.140021e-04
6.049137e-04
5.676782e-04
5.751968e-04
5.673093e-04
5.600062e-04
5.522705e-04
5.522683e-04
5.749744e-04
5.830246e-04
5.986475e-04
5.677457e-04
5.979842e-04
5.907455e-04
5.984377e-04
6.361268e-04
6.360940e-04
5.749781e-04
5.522673e-04
5.750518e-04
5.597986e-04
5.597951e-04
5.600049e-04
5.904677e-04
5.900989e-04
5.599322e-04
5.522706e-04
5.597932e-04
5.676786e-04
5.673084e-04
5.830108e-04
6.374846e-04
6.142306e-04
6.126522e-04
5.599338e-04
5.597872e-04
5.751963e-04
5.677458e-04
5.600048e-04
5.599365e-04
5.522704e-04
5.597982e-04
5.827936e-04
5.977650e-04
5.909840e-04
5.827179e-04
5.522785e-04
6.429472e-04
6.513866e-04
5.823465e-04
5.752062e-04
5.824982e-04
5.829456e-04
5.754104e-04
5.674626e-04
5.597956e-04
5.597914e-04
5.522744e-04
5.599387e-04
5.522769e-04
5.597889e-04
5.597941e-04
5.673092e-04
6.452391e-04
6.527468e-04
6.525207e-04
6.527573e-04
6.604802e-04
6.529574e-04
6.527307e-04
6.527456e-04
6.529586e-04
6.607057e-04
6.527508e-04
6.606861e-04
6.529627e-04
6.603914e-04
6.529653e-04
6.529801e-04
6.529742e-04
6.606324e-04
6.529619e-04
6.604140e-04
6.527384e-04
6.372557e-04
6.527353e-04
6.606360e-04
6.607085e-04
6.529757e-04
6.607056e-04
6.529659e-04
6.529704e-04
6.529755e-04
6.529645e-04
6.529683e-04
6.529860e-04
6.529709e-04
6.520710e-04
6.529859e-04
6.529784e-04
6.451386e-04
6.297226e-04
6.374717e-04
6.529654e-04
6.529712e-04
6.527415e-04
6.527406e-04
6.606458e-04
6.527437e-04
6.522690e-04
6.219037e-04
6.516096e-04
6.529724e-04
6.606401e-04
6.529667e-04
6.447651e-04
6.601846e-04
6.607112e-04
6.529755e-04
6.525175e-04
6.527323e-04
6.529659e-04
6.452167e-04
6.529671e-04
6.529702e-04
6.529681e-04
6.529709e-04
6.529758e-04
6.294334e-04
6.210761e-04
5.830119e-04
5.677486e-04
5.755027e-04
5.750528e-04
5.754940e-04
5.675282e-04
5.905412e-04
5.978256e-04
5.752640e-04
5.597887e-04
5.675282e-04
6.059993e-04
6.212020e-04
6.519831e-04
6.053361e-04
5.597928e-04
5.597944e-04
5.830194e-04
5.752056e-04
5.522724e-04
5.600081e-04
5.522751e-04
5.522707e-04
5.675250e-04
5.600111e-04
5.600088e-04
5.600140e-04
5.751999e-04
5.751949e-04
6.527529e-04
6.297327e-04
6.053548e-04
5.907579e-04
5.750465e-04
5.752757e-04
5.752693e-04
5.754968e-04
5.748267e-04
6.052838e-04
5.904622e-04
5.751964e-04
5.827188e-04
5.902364e-04
5.905228e-04
5.905248e-04
6.135276e-04
5.827766e-04
5.522686e-04
5.598015e-04
5.824928e-04
5.750462e-04
5.752010e-04
5.673149e-04
5.677471e-04
5.673145e-04
5.597879e-04
5.675355e-04
5.597982e-04
5.522785e-04
5.676755e-04
5.675332e-04
6.528975e-04
6.528967e-04
5.827795e-04
5.982826e-04
5.752676e-04
5.599414e-04
5.673187e-04
5.673069e-04
5.600080e-04
6.055787e-04
6.205593e-04
5.677621e-04
5.902383e-04
5.904574e-04
5.906786e-04
5.982042e-04
5.905253e-04
5.752733e-04
5.673101e-04
5.748332e-04
5.900973e-04
5.825693e-04
5.749798e-04
5.522742e-04
5.675317e-04
5.673102e-04
5.522738e-04
5.674525e-04
5.597898e-04
5.749777e-04
5.827253e-04
5.831635e-04
6.452355e-04
6.527390e-04
5.829429e-04
5.903116e-04
5.908894e-04
5.677431e-04
5.829348e-04
5.749778e-04
5.522652e-04
6.201149e-04
6.280756e-04
5.675343e-04
5.751898e-04
5.902375e-04
5.827108e-04
5.752638e-04
5.754840e-04
5.754960e-04
5.754165e-04
6.053439e-04
6.125778e-04
5.900889e-04
5.748319e-04
5.522719e-04
5.600069e-04
5.750477e-04
5.827906e-04
5.979828e-04
5.825664e-04
5.904681e-04
6.057188e-04
5.981999e-04
6.529775e-04
6.607103e-04
5.832316e-04
5.908991e-04
5.831632e-04
5.830031e-04
5.752643e-04
5.752611e-04
5.597901e-04
6.124352e-04
6.206161e-04
5.829422e-04
5.976068e-04
5.980418e-04
6.055584e-04
6.285629e-04
6.057829e-04
6.135247e-04
6.214789e-04
6.517692e-04
6.522065e-04
6.519884e-04
6.437375e-04
6.134397e-04
6.130785e-04
6.358585e-04
6.587965e-04
6.440374e-04
6.435348e-04
6.282815e-04
6.363078e-04
6.294644e-04
6.527364e-04
6.527519e-04
5.902314e-04
5.827192e-04
5.675325e-04
5.677611e-04
5.750486e-04
5.827924e-04
6.054919e-04
6.062148e-04
6.062090e-04
6.282702e-04
6.285003e-04
6.203883e-04
6.209724e-04
6.278285e-04
6.208179e-04
6.279025e-04
6.356293e-04
6.433732e-04
6.433022e-04
6.509127e-04
6.587888e-04
6.201485e-04
6.581299e-04
6.435838e-04
6.433624e-04
6.437396e-04
6.430811e-04
6.353445e-04
6.287728e-04
6.125714e-04
6.529793e-04
6.529827e-04
5.675305e-04
5.522694e-04
5.599351e-04
5.750583e-04
5.827940e-04
5.979705e-04
6.134643e-04
6.211941e-04
5.825590e-04
5.980430e-04
6.052862e-04
5.754818e-04
5.752727e-04
5.597864e-04
5.825760e-04
5.824899e-04