# vtk DataFile Version 3.0
Cu single-crystal phase-field data
ASCII
DATASET STRUCTURED_POINTS
DIMENSIONS 32 32 16
ORIGIN 0 0 0
SPACING 5.000000e-07 5.000000e-07 5.000000e-07
POINT_DATA 16384
SCALARS crack float 1
LOOKUP_TABLE default
7.550663e-04
7.550678e-04
7.549910e-04
7.473333e-04
7.473195e-04
7.473199e-04
7.473310e-04
7.473266e-04
7.473224e-04
7.473358e-04
7.550655e-04
7.550663e-04
7.473282e-04
7.473244e-04
7.550648e-04
7.473241e-04
7.471026e-04
7.473244e-04
7.473474e-04
7.473434e-04
7.550654e-04
7.549965e-04
7.550644e-04
7.550656e-04
7.549925e-04
7.549921e-04
7.550678e-04
7.549910e-04
7.473260e-04
7.473191e-04
7.473273e-04
7.473387e-04
7.473213e-04
7.547413e-04
7.318325e-04
7.393361e-04
7.393383e-04
7.395639e-04
7.391169e-04
7.395708e-04
7.468673e-04
7.540884e-04
7.461869e-04
7.310612e-04
7.461822e-04
7.549901e-04
7.550628e-04
7.549957e-04
7.466489e-04
7.473378e-04
7.395948e-04
7.473315e-04
7.395795e-04
7.473117e-04
7.549920e-04
7.545319e-04
7.318265e-04
7.548226e-04
7.548407e-04
7.547577e-04
7.470969e-04
7.547635e-04
7.550621e-04
7.473416e-04
7.470894e-04
7.473075e-04
7.391141e-04
7.318304e-04
7.392707e-04
7.391104e-04
7.240716e-04
7.468680e-04
7.473229e-04
7.550642e-04
7.549908e-04
7.470926e-04
7.473135e-04
7.470345e-04
7.316995e-04
7.318126e-04
7.467834e-04
7.473114e-04
7.473238e-04
7.550586e-04
7.393450e-04
7.473253e-04
7.473143e-04
7.470858e-04
7.472363e-04
7.548344e-04
7.546052e-04
7.470976e-04
7.473047e-04
7.550516e-04
7.549867e-04
7.550690e-04
7.470955e-04
7.473151e-04
7.472804e-04
7.549874e-04
7.550591e-04
7.549818e-04
7.473106e-04
7.473072e-04
7.473323e-04
7.549687e-04
7.549850e-04
7.473277e-04
7.472320e-04
7.470804e-04
7.470872e-04
7.547494e-04
7.550391e-04
7.547461e-04
7.471132e-04
7.545239e-04
7.393359e-04
7.470877e-04
7.473120e-04
7.393394e-04
7.549879e-04
7.550603e-04
7.550601e-04
7.549771e-04
7.473070e-04
7.550596e-04
7.473144e-04
7.550662e-04
7.470907e-04
7.473024e-04
7.473149e-04
7.547619e-04
7.547362e-04
7.473062e-04
7.550515e-04
7.473177e-04
7.549827e-04
7.545967e-04
7.550582e-04
7.470875e-04
7.550564e-04
7.548285e-04
7.470947e-04
7.473116e-04
7.547339e-04
7.550457e-04
7.547515e-04
7.395639e-04
7.547529e-04
7.473115e-04
7.473108e-04
7.470873e-04
7.473215e-04
7.549879e-04
7.473204e-04
7.549739e-04
7.549730e-04
7.547500e-04
7.473033e-04
7.549947e-04
7.470978e-04
7.473352e-04
7.549879e-04
7.550566e-04
7.548261e-04
7.395633e-04
7.549730e-04
7.473236e-04
7.473146e-04
7.547448e-04
7.549675e-04
7.470997e-04
7.550450e-04
7.548304e-04
7.545330e-04
7.473160e-04
7.473107e-04
7.473061e-04
7.468490e-04
7.545157e-04
7.464015e-04
7.470738e-04
7.470857e-04
7.473051e-04
7.473234e-04
7.473150e-04
7.472344e-04
7.550513e-04
7.549735e-04
7.470845e-04
7.473040e-04
7.547595e-04
7.473188e-04
7.470988e-04
7.473170e-04
7.549910e-04
7.468578e-04
7.470070e-04
7.473124e-04
7.549874e-04
7.473251e-04
7.473222e-04
7.550644e-04
7.473313e-04
7.473132e-04
7.549797e-04
7.550629e-04
7.466553e-04
7.311521e-04
7.459480e-04
7.461047e-04
7.466289e-04
7.311440e-04
7.468286e-04
7.473114e-04
7.550512e-04
7.472746e-04
7.470671e-04
7.473081e-04
7.547563e-04
7.471004e-04
7.473179e-04
7.549902e-04
7.550662e-04
7.473279e-04
7.473157e-04
7.473098e-04
7.473105e-04
7.470876e-04
7.545353e-04
7.543815e-04
7.543806e-04
7.466462e-04
7.457356e-04
7.466544e-04
7.550654e-04
7.473180e-04
7.473331e-04
7.473144e-04
7.395590e-04
7.547620e-04
7.470016e-04
7.550598e-04
7.470153e-04
7.393479e-04
7.240933e-04
7.468722e-04
7.550639e-04
7.473140e-04
7.549888e-04
7.473165e-04
7.470916e-04
7.468656e-04
7.395736e-04
7.395659e-04
7.549995e-04
7.473227e-04
7.473237e-04
7.473193e-04
7.473203e-04
7.473004e-04
7.471074e-04
7.549842e-04
7.473047e-04
7.473081e-04
7.550612e-04
7.473270e-04
7.473187e-04
7.550615e-04
7.473164e-04
7.550554e-04
7.550547e-04
7.550534e-04
7.547587e-04
7.549800e-04
7.473222e-04
7.473185e-04
7.473178e-04
7.470853e-04
7.473126e-04
7.550560e-04
7.550583e-04
7.549870e-04
7.473223e-04
7.473141e-04
7.473262e-04
7.473187e-04
7.549972e-04
7.473154e-04
7.473132e-04
7.473060e-04
7.473122e-04
7.548297e-04
7.470866e-04
7.550602e-04
7.473231e-04
7.549845e-04
7.471001e-04
7.550542e-04
7.473164e-04
7.470786e-04
7.473191e-04
7.473069e-04
7.473131e-04
7.549861e-04
7.549913e-04
7.473067e-04
7.549858e-04
7.470923e-04
7.473154e-04
7.472395e-04
7.473040e-04
7.473211e-04
7.549900e-04
7.549740e-04
7.470992e-04
7.395746e-04
7.470896e-04
7.549884e-04
7.550678e-04
7.473241e-04
7.473123e-04
7.473170e-04
7.473170e-04
7.473070e-04
7.473091e-04
7.473233e-04
7.549885e-04
7.550631e-04
7.472430e-04
7.470995e-04
7.547627e-04
7.470920e-04
7.473139e-04
7.473213e-04
7.473243e-04
7.549891e-04
7.550558e-04
7.473170e-04
7.550536e-04
7.549787e-04
7.549864e-04
7.550569e-04
7.547549e-04
7.473148e-04
7.549836e-04
7.550590e-04
7.394882e-04
7.393380e-04
7.395673e-04
7.470906e-04
7.547687e-04
7.473321e-04
7.395722e-04
7.473154e-04
7.549866e-04
7.473177e-04
7.468633e-04
7.468451e-04
7.473288e-04
7.549814e-04
7.470991e-04
7.547595e-04
7.546086e-04
7.547535e-04
7.473241e-04
7.473217e-04
7.473051e-04
7.473166e-04
7.549861e-04
7.473259e-04
7.549792e-04
7.473186e-04
7.473107e-04
7.545338e-04
7.473015e-04
7.473096e-04
7.473127e-04
7.549769e-04
7.393453e-04
7.393085e-04
7.393293e-04
7.548351e-04
7.471083e-04
7.473339e-04
7.473075e-04
7.549830e-04
7.550561e-04
7.550556e-04
7.473213e-04
7.470834e-04
7.550573e-04
7.545380e-04
7.393358e-04
7.473116e-04
7.547562e-04
7.473180e-04
7.473420e-04
7.549830e-04
7.473160e-04
7.395649e-04
7.473215e-04
7.473331e-04
7.395621e-04
7.549910e-04
7.473300e-04
7.550570e-04
7.473123e-04
7.473164e-04
7.395668e-04
7.393461e-04
7.313708e-04
7.385839e-04
7.391290e-04
7.395723e-04
7.470996e-04
7.473215e-04
7.470887e-04
7.468632e-04
7.549870e-04
7.473058e-04
7.470868e-04
7.548377e-04
7.550531e-04
7.393303e-04
7.390365e-04
7.315870e-04
7.461454e-04
7.473312e-04
7.550550e-04
7.550583e-04
7.549850e-04
7.473219e-04
7.395750e-04
7.471085e-04
7.549914e-04
7.550558e-04
7.473255e-04
7.550582e-04
7.549864e-04
7.473134e-04
7.395693e-04
7.318268e-04
7.315221e-04
7.386529e-04
7.467932e-04
7.473164e-04
7.473291e-04
7.473259e-04
7.468452e-04
7.240819e-04
7.318213e-04
7.473180e-04
7.393374e-04
7.468506e-04
7.549866e-04
7.315957e-04
7.395613e-04
7.548234e-04
7.388761e-04
7.548981e-04
7.550614e-04
7.550569e-04
7.472365e-04
7.473035e-04
7.473017e-04
7.473154e-04
7.473033e-04
7.547592e-04
7.470949e-04
7.549842e-04
7.395654e-04
7.470845e-04
7.473070e-04
7.470126e-04
7.395630e-04
7.385814e-04
7.391114e-04
7.395706e-04
7.473329e-04
7.473298e-04
7.163494e-04
7.240739e-04
7.240819e-04
7.316100e-04
7.318263e-04
7.388905e-04
7.549972e-04
7.391050e-04
7.543064e-04
7.550616e-04
7.473092e-04
7.473254e-04
7.546091e-04
7.468718e-04
7.473095e-04
7.473138e-04
7.473226e-04
7.549825e-04
7.473165e-04
7.540923e-04
7.472793e-04
7.473176e-04
7.473258e-04
7.395700e-04
7.473031e-04
7.550613e-04
7.470126e-04
7.240690e-04
7.468438e-04
7.471033e-04
7.473314e-04
7.550013e-04
7.473387e-04
7.473363e-04
7.318203e-04
7.394887e-04
7.393539e-04
7.395648e-04
7.473264e-04
7.550677e-04
7.472834e-04
7.473225e-04
7.473192e-04
7.473275e-04
7.393479e-04
7.395679e-04
7.470905e-04
7.473339e-04
7.550545e-04
7.550625e-04
7.549847e-04
6.694109e-04
7.454636e-04
7.550601e-04
7.473131e-04
7.549834e-04
7.550558e-04
7.550536e-04
7.473219e-04
7.395709e-04
7.473203e-04
7.466393e-04
7.473452e-04
7.550756e-04
7.549880e-04
7.473203e-04
7.547603e-04
7.395705e-04
7.472386e-04
7.473223e-04
7.473220e-04
7.473176e-04
7.473263e-04
7.473093e-04
7.473305e-04
7.473288e-04
7.315999e-04
7.395585e-04
7.548392e-04
7.550591e-04
7.550663e-04
7.550634e-04
7.008419e-04
6.464070e-04
7.448116e-04
7.473257e-04
7.473186e-04
7.395739e-04
7.472386e-04
7.473158e-04
7.473323e-04
7.473171e-04
7.549973e-04
7.318232e-04
7.473494e-04
7.549949e-04
7.473120e-04
7.550570e-04
7.550588e-04
7.547579e-04
7.473184e-04
7.549884e-04
7.473187e-04
7.473192e-04
7.395753e-04
7.468756e-04
7.550644e-04
7.473264e-04
7.315981e-04
7.473291e-04
7.550669e-04
7.550693e-04
7.550674e-04
7.083614e-04
6.851255e-04
6.464065e-04
7.445885e-04
7.473235e-04
7.473301e-04
7.473269e-04
7.473261e-04
7.550560e-04
7.473223e-04
7.549850e-04
7.550634e-04
7.470146e-04
7.473223e-04
7.473256e-04
7.473147e-04
7.547598e-04
7.473078e-04
7.547590e-04
7.549859e-04
7.550577e-04
7.549885e-04
7.473137e-04
7.473253e-04
7.472997e-04
7.473273e-04
7.471053e-04
7.391450e-04
7.313594e-04
7.473255e-04
7.472509e-04
7.470943e-04
7.008478e-04
6.536997e-04
6.616468e-04
6.923880e-04
7.470398e-04
7.473263e-04
7.473316e-04
7.473241e-04
7.473115e-04
7.473227e-04
7.473212e-04
7.549962e-04
7.468645e-04
7.473219e-04
7.473351e-04
7.473174e-04
7.473341e-04
7.472372e-04
7.549879e-04
7.473152e-04
7.550581e-04
7.473425e-04
7.550632e-04
7.473202e-04
7.473228e-04
7.550599e-04
7.468764e-04
7.459505e-04
7.532141e-04
7.468635e-04
7.468734e-04
7.316179e-04
6.842100e-04
6.844410e-04
6.924065e-04
7.005959e-04
7.393046e-04
7.471051e-04
7.473254e-04
7.473215e-04
7.473224e-04
7.395722e-04
7.240876e-04
7.391176e-04
7.395742e-04
7.473318e-04
7.473293e-04
7.473214e-04
7.395715e-04
7.394878e-04
7.550593e-04
7.549857e-04
7.473185e-04
7.473179e-04
7.473119e-04
7.471026e-04
7.473360e-04
7.473190e-04
7.473098e-04
7.549965e-04
7.549614e-04
7.313548e-04
7.318109e-04
7.003852e-04
7.310609e-04
7.307000e-04
7.459522e-04
7.395297e-04
7.472979e-04
7.473260e-04
7.473248e-04
7.473333e-04
7.473272e-04
7.395763e-04
7.238623e-04
7.313801e-04
7.473236e-04
7.550736e-04
7.473314e-04
7.470953e-04
7.470753e-04
7.395752e-04
7.549873e-04
7.473279e-04
7.473218e-04
7.473136e-04
7.550577e-04
7.473181e-04
7.470872e-04
7.473333e-04
7.549927e-04
7.550664e-04
7.546137e-04
7.390307e-04
7.161066e-04
7.162420e-04
7.470809e-04
7.548296e-04
7.470943e-04
7.393429e-04
7.473206e-04
7.473220e-04
7.473182e-04
7.473217e-04
7.473267e-04
7.473231e-04
7.238466e-04
7.238548e-04
7.318237e-04
7.473418e-04
7.473214e-04
7.473140e-04
7.550578e-04
7.470903e-04
7.473095e-04
7.473186e-04
7.473208e-04
7.395652e-04
7.473097e-04
7.395658e-04
7.473084e-04
7.473247e-04
7.473137e-04
7.549919e-04
7.547552e-04
7.315845e-04
7.472221e-04
7.395665e-04
7.550492e-04
7.550558e-04
7.547662e-04
7.470875e-04
7.473251e-04
7.550613e-04
7.473200e-04
7.473209e-04
7.473161e-04
7.547659e-04
7.393383e-04
7.395586e-04
7.547670e-04
7.473293e-04
7.473236e-04
7.473118e-04
7.473018e-04
7.393465e-04
7.473131e-04
7.473093e-04
7.473114e-04
7.473082e-04
7.473099e-04
7.473086e-04
7.473160e-04
7.473250e-04
7.471067e-04
7.473184e-04
7.473037e-04
7.549716e-04
7.550478e-04
7.549713e-04
7.549825e-04
7.549898e-04
7.473346e-04
7.473167e-04
7.549856e-04
7.550594e-04
7.549794e-04
7.473125e-04
7.549841e-04
7.550612e-04
7.547332e-04
7.549851e-04
7.550632e-04
7.550670e-04
7.470981e-04
7.473037e-04
7.473126e-04
7.473111e-04
7.473064e-04
7.473108e-04
7.473070e-04
7.550528e-04
7.473162e-04
7.473108e-04
7.473125e-04
7.550553e-04
7.473126e-04
7.473290e-04
7.473216e-04
7.549744e-04
7.547601e-04
7.547511e-04
7.468669e-04
7.472388e-04
7.473242e-04
7.470906e-04
7.473142e-04
7.549835e-04
7.473183e-04
7.550559e-04
7.549913e-04
7.471021e-04
7.473125e-04
7.473298e-04
7.549869e-04
7.550682e-04
7.473217e-04
7.473103e-04
7.550526e-04
7.473097e-04
7.473063e-04
7.473085e-04
7.473067e-04
7.473123e-04
7.473174e-04
7.473225e-04
7.473161e-04
7.473133e-04
7.473189e-04
7.473124e-04
7.549872e-04
7.550629e-04
7.472384e-04
7.468748e-04
7.547716e-04
7.473196e-04
7.473213e-04
7.545331e-04
7.473036e-04
7.473160e-04
7.473273e-04
7.549798e-04
7.550488e-04
7.550485e-04
7.547558e-04
7.550500e-04
7.550601e-04
7.550624e-04
7.545388e-04
7.473087e-04
7.473193e-04
7.473109e-04
7.473217e-04
7.549808e-04
7.473140e-04
7.473065e-04
7.473108e-04
7.473116e-04
7.473191e-04
7.473177e-04
7.473261e-04
7.473060e-04
7.470869e-04
7.549818e-04
7.550553e-04
7.473101e-04
7.549781e-04
7.473023e-04
7.549869e-04
7.550594e-04
7.547226e-04
7.531564e-04
7.457226e-04
7.456785e-04
7.543757e-04
7.548218e-04
7.549806e-04
7.473050e-04
7.473084e-04
7.549902e-04
7.548346e-04
7.549899e-04
7.473248e-04
7.470779e-04
7.472306e-04
7.550512e-04
7.549775e-04
7.473090e-04
7.473085e-04
7.473122e-04
7.473112e-04
7.473105e-04
7.473117e-04
7.473083e-04
7.470891e-04
7.473231e-04
7.473135e-04
7.549736e-04
7.550608e-04
7.549869e-04
7.473178e-04
7.549836e-04
7.549912e-04
7.550544e-04
7.549948e-04
7.473246e-04
7.473260e-04
7.549909e-04
7.547535e-04
7.549722e-04
7.550503e-04
7.550634e-04
7.547640e-04
7.473249e-04
7.473092e-04
7.473058e-04
7.472987e-04
7.549772e-04
7.473131e-04
7.473037e-04
7.473171e-04
7.473114e-04
7.549732e-04
7.473084e-04
7.550491e-04
7.550575e-04
7.473149e-04
7.468388e-04
7.472932e-04
7.473008e-04
7.550592e-04
7.473133e-04
7.470970e-04
7.549821e-04
7.473379e-04
7.545343e-04
7.388868e-04
7.473187e-04
7.473333e-04
7.547638e-04
7.473119e-04
7.549882e-04
7.549911e-04
7.473306e-04
7.470976e-04
7.468618e-04
7.470887e-04
7.473068e-04
7.395700e-04
7.473019e-04
7.473234e-04
7.473097e-04
7.550509e-04
7.473307e-04
7.550541e-04
7.548274e-04
7.550459e-04
7.547557e-04
7.473166e-04
7.473249e-04
7.549732e-04
7.473146e-04
7.473157e-04
7.473083e-04
7.470015e-04
7.550474e-04
7.472318e-04
7.468529e-04
7.472989e-04
7.550625e-04
7.473171e-04
7.473120e-04
7.547559e-04
7.470913e-04
7.473301e-04
7.473385e-04
7.395948e-04
7.473229e-04
7.473249e-04
7.470940e-04
7.473190e-04
7.473198e-04
7.473151e-04
7.473122e-04
7.473185e-04
7.473185e-04
7.473214e-04
7.549847e-04
7.550594e-04
7.549897e-04
7.473252e-04
7.549905e-04
7.548351e-04
7.472389e-04
7.473198e-04
7.473156e-04
7.473215e-04
7.550599e-04
7.473377e-04
7.473374e-04
7.473233e-04
7.473224e-04
7.473209e-04
7.473278e-04
7.473437e-04
7.473277e-04
7.473295e-04
7.473247e-04
7.550721e-04
7.540927e-04
7.393510e-04
7.395775e-04
7.316001e-04
7.240798e-04
7.240818e-04
7.395674e-04
7.468703e-04
7.473139e-04
7.550553e-04
7.548373e-04
7.549859e-04
7.549997e-04
7.550665e-04
7.550046e-04
7.473138e-04
7.473348e-04
7.473450e-04
7.545361e-04
7.548410e-04
7.547650e-04
7.549964e-04
7.470182e-04
7.470920e-04
7.473344e-04
7.549925e-04
7.473231e-04
7.473270e-04
7.473242e-04
7.550665e-04
7.473475e-04
7.161221e-04
7.153289e-04
6.614379e-04
6.461751e-04
6.541326e-04
6.539162e-04
6.543652e-04
6.537013e-04
6.616524e-04
6.846659e-04
6.918992e-04
6.992492e-04
6.850926e-04
6.849110e-04
7.001244e-04
7.386406e-04
7.448162e-04
6.386685e-04
6.311444e-04
6.540567e-04
6.542848e-04
6.465472e-04
6.311407e-04
6.463958e-04
6.463975e-04
6.463990e-04
6.388066e-04
6.386684e-04
6.386631e-04
6.388071e-04
6.464066e-04
7.395974e-04
7.317633e-04
6.919546e-04
6.691810e-04
6.463943e-04
6.543529e-04
6.543546e-04
6.543466e-04
6.386642e-04
6.839324e-04
6.693913e-04
6.693853e-04
6.612143e-04
6.766857e-04
7.078612e-04
7.232811e-04
7.377407e-04
6.844230e-04
6.461888e-04
6.387971e-04
6.311430e-04
6.540698e-04
6.388809e-04
6.386625e-04
6.461826e-04
6.386595e-04
6.538490e-04
6.538510e-04
6.386563e-04
6.386586e-04
6.540633e-04
6.618746e-04
7.473338e-04
7.395865e-04
6.689513e-04
6.848763e-04
6.616579e-04
6.463349e-04
6.537004e-04
6.613715e-04
6.461781e-04
6.996231e-04
7.075948e-04
6.541393e-04
6.539237e-04
6.770599e-04
6.691750e-04
6.842225e-04
6.769102e-04
6.770602e-04
6.542898e-04
6.386768e-04
6.461800e-04
6.461790e-04
6.386582e-04
6.386557e-04
6.461778e-04
6.461835e-04
6.464011e-04
6.311429e-04
6.463219e-04
6.618051e-04
6.616565e-04
6.543549e-04
7.473370e-04
7.471077e-04
6.541503e-04
6.463969e-04
6.687373e-04
6.696337e-04
6.620420e-04
6.311372e-04
6.388123e-04
6.988295e-04
7.149050e-04
6.463997e-04
6.539103e-04
6.463964e-04
6.536968e-04
6.541339e-04
6.541486e-04
6.620388e-04
6.466270e-04
6.539274e-04
6.538478e-04
6.538489e-04
6.386610e-04
6.386602e-04
6.461791e-04
6.461777e-04
6.612140e-04
6.693292e-04
6.618814e-04
6.691857e-04
6.770808e-04
6.691822e-04
7.473394e-04
7.473253e-04
6.768372e-04
6.691759e-04
6.618659e-04
6.386591e-04
6.620341e-04
6.618211e-04
6.311368e-04
6.762549e-04
7.008129e-04
7.146667e-04
7.067734e-04
7.144964e-04
7.223961e-04
7.219698e-04
6.996882e-04
6.919550e-04
6.996094e-04
7.067641e-04
7.220327e-04
7.220146e-04
7.067566e-04
6.992370e-04
6.993881e-04
7.142783e-04
7.445826e-04
7.520388e-04
7.146570e-04
6.994675e-04
7.220399e-04
7.147376e-04
7.470912e-04
7.471140e-04
6.689494e-04
6.612111e-04
6.541376e-04
6.618086e-04
6.461733e-04
6.693267e-04
6.766276e-04
6.536915e-04
6.994025e-04
6.919515e-04
7.149399e-04
7.146532e-04
7.144304e-04
6.994550e-04
7.226101e-04
7.222393e-04
7.295294e-04
7.378600e-04
7.293075e-04
7.374166e-04
7.374796e-04
7.294609e-04
7.445090e-04
7.456120e-04
7.293157e-04
7.295329e-04
6.992460e-04
7.219593e-04
7.148737e-04
6.837644e-04
7.550060e-04
7.473473e-04
6.386584e-04
6.388081e-04
6.388740e-04
6.461791e-04
6.620822e-04
6.773569e-04
6.927843e-04
7.005239e-04
7.082262e-04
7.006043e-04
6.696207e-04
6.614397e-04
6.461779e-04
6.536987e-04
6.695500e-04
6.536917e-04
6.769078e-04
6.845742e-04
6.768619e-04
6.769006e-04
6.845808e-04
6.923474e-04
6.918834e-04
6.764760e-04
6.536924e-04
6.543509e-04
6.696199e-04
6.696173e-04
6.538536e-04
6.461768e-04
7.473490e-04
7.473495e-04
6.463378e-04
6.386576e-04
6.466102e-04
6.695452e-04
6.614389e-04
6.693245e-04
6.772777e-04
6.843665e-04
6.461777e-04
6.921706e-04
7.001508e-04
6.766301e-04
6.386683e-04
6.538483e-04
6.618043e-04
6.463231e-04
6.543609e-04
6.461746e-04
6.461734e-04
6.461759e-04
6.536983e-04
6.539175e-04
6.388776e-04
6.311411e-04
6.388797e-04
6.386612e-04
6.386668e-04
6.536949e-04
6.461764e-04
6.614460e-04
7.469081e-04
7.471131e-04
6.461806e-04
6.461778e-04
6.618063e-04
6.461763e-04
6.464087e-04
6.614451e-04
6.691100e-04
6.388772e-04
6.541318e-04
6.616568e-04
6.998544e-04
6.764217e-04
6.386576e-04
6.463257e-04
6.542970e-04
6.539192e-04
6.466199e-04
6.386663e-04
6.388742e-04
6.463932e-04
6.542858e-04
6.541392e-04
6.539149e-04
6.463375e-04
6.388800e-04
6.616670e-04
6.694006e-04
6.614427e-04
6.691797e-04
6.689510e-04
7.547890e-04
7.473477e-04
6.311406e-04
6.388831e-04
6.466154e-04
6.618077e-04
6.466235e-04
6.768474e-04
6.687492e-04
6.465371e-04
6.614351e-04
7.073710e-04
6.926298e-04
6.689633e-04
6.311431e-04
6.311461e-04
6.463321e-04
6.461828e-04
6.388088e-04
6.311456e-04
6.388052e-04
6.463942e-04
6.466133e-04
6.620275e-04
6.463950e-04
6.386596e-04
6.463994e-04
6.693312e-04
6.772769e-04
6.691683e-04
6.618642e-04
6.540614e-04
7.471299e-04
7.473291e-04
6.541387e-04
6.386595e-04
6.388803e-04
6.542835e-04
6.618959e-04
6.917396e-04
6.766194e-04
6.539141e-04
7.069937e-04
6.999229e-04
7.000565e-04
6.616635e-04
6.386599e-04
6.311416e-04
6.311416e-04
6.386602e-04
6.311428e-04
6.311415e-04
6.386665e-04
6.388080e-04
6.464001e-04
6.540736e-04
6.386605e-04
6.311386e-04
6.461781e-04
6.614400e-04
6.620920e-04
6.769234e-04
6.768488e-04
6.464025e-04
7.548593e-04
7.393780e-04
6.618900e-04
6.466132e-04
6.388779e-04
6.311437e-04
6.615890e-04
6.996950e-04
6.766896e-04
7.157570e-04
7.155328e-04
7.085360e-04
7.003679e-04
6.689636e-04
6.311516e-04
6.311408e-04
6.386566e-04
6.386632e-04
6.388790e-04
6.388890e-04
6.386659e-04
6.386665e-04
6.388122e-04
6.311435e-04
6.388139e-04
6.386597e-04
6.464000e-04
6.537007e-04
6.696141e-04
6.844449e-04
6.614415e-04
6.388861e-04
7.471194e-04
7.393712e-04
6.618035e-04
6.543733e-04
6.466102e-04
6.464037e-04
6.618043e-04
6.917296e-04
6.919585e-04
7.230780e-04
6.998968e-04
7.310087e-04
7.238173e-04
6.461814e-04
6.311414e-04
6.388085e-04
6.311473e-04
7.215815e-04
7.443864e-04
7.443583e-04
6.461775e-04
6.463320e-04
6.386612e-04
6.388099e-04
6.311369e-04
6.388760e-04
6.540609e-04
6.539168e-04
6.848096e-04
6.921076e-04
6.691006e-04
6.461768e-04
7.550849e-04
7.470392e-04
6.764895e-04
6.616571e-04
6.543790e-04
6.536955e-04
6.618811e-04
6.994047e-04
6.917176e-04
7.232704e-04
7.299446e-04
7.526923e-04
7.392196e-04
7.233809e-04
6.990198e-04
6.912851e-04
7.388661e-04
7.472080e-04
7.447833e-04
7.392239e-04
7.469753e-04
6.766298e-04
6.614403e-04
6.386529e-04
6.465477e-04
6.465447e-04
6.461790e-04
6.541353e-04
6.694102e-04
6.924129e-04
6.691732e-04
6.540594e-04
7.473483e-04
7.473399e-04
6.696170e-04
6.620861e-04
6.612132e-04
6.541309e-04
6.613657e-04
6.994728e-04
7.151004e-04
7.069885e-04
6.994509e-04
6.920889e-04
6.996108e-04
7.531379e-04
7.235447e-04
7.539995e-04
7.452274e-04
6.614342e-04
6.388045e-04
6.311438e-04
7.387261e-04
7.312782e-04
7.071464e-04
6.688905e-04
6.386569e-04
6.388820e-04
6.465521e-04
6.540634e-04
6.696363e-04
6.773738e-04
6.929912e-04
6.616518e-04
7.550020e-04
7.550035e-04
6.618846e-04
6.543732e-04
6.543621e-04
6.615903e-04
6.539250e-04
6.616623e-04
7.069262e-04
7.221714e-04
7.542818e-04
7.215214e-04
6.311367e-04
6.845749e-04
7.522478e-04
7.450329e-04
6.764077e-04
6.386613e-04
6.311406e-04
6.388092e-04
7.457169e-04
7.549186e-04
7.374464e-04
6.311391e-04
6.388072e-04
6.311434e-04
6.388084e-04
6.311389e-04
6.463993e-04
6.688911e-04
6.691761e-04
6.766971e-04
7.547654e-04
7.550140e-04
6.461854e-04
6.540702e-04
6.543545e-04
6.538473e-04
6.540783e-04
6.388798e-04
6.311401e-04
6.388051e-04
7.450265e-04
7.443701e-04
6.388114e-04
6.762589e-04
7.445823e-04
7.527186e-04
6.691208e-04
6.463297e-04
6.388117e-04
6.928465e-04
7.463915e-04
7.461223e-04
7.443040e-04
6.540641e-04
6.388805e-04
6.388763e-04
6.465499e-04
6.463281e-04
6.311398e-04
6.463277e-04
6.461874e-04
6.539140e-04
7.318791e-04
7.473554e-04
6.538512e-04
6.541383e-04
6.540673e-04
6.464001e-04
6.388814e-04
6.311421e-04
6.311420e-04
6.386628e-04
7.439437e-04
7.522630e-04
6.311461e-04
6.688864e-04
7.366366e-04
7.445167e-04
6.463305e-04
6.464015e-04
6.850303e-04
7.006138e-04
7.463563e-04
7.454530e-04
7.366363e-04
6.386595e-04
6.311387e-04
6.388777e-04
6.465489e-04
6.311414e-04
6.463282e-04
6.311385e-04
6.538545e-04
6.539195e-04
7.393757e-04
7.473462e-04
6.461799e-04
6.615851e-04
6.541397e-04
6.463941e-04
6.386594e-04
6.388784e-04
6.311481e-04
6.388774e-04
7.291183e-04
7.454765e-04
6.616507e-04
7.213703e-04
7.465506e-04
7.549230e-04
6.991803e-04
6.615874e-04
6.926163e-04
7.470033e-04
7.457159e-04
7.439258e-04
7.291163e-04
6.837749e-04
6.311418e-04
6.311444e-04
6.311368e-04
6.388797e-04
6.386602e-04
6.537076e-04
6.621264e-04
6.541291e-04
7.240969e-04
7.473391e-04
6.537033e-04
6.541446e-04
6.461780e-04
6.463938e-04
6.388048e-04
6.311417e-04
6.386573e-04
6.388056e-04
7.071489e-04
7.381068e-04
7.220096e-04
7.540059e-04
7.531397e-04
7.315471e-04
7.548702e-04
7.218072e-04
7.547355e-04
7.472540e-04
7.367766e-04
7.213701e-04
7.065497e-04
6.762588e-04
6.386587e-04
6.311402e-04
6.311473e-04
6.386566e-04
6.543611e-04
6.696470e-04
6.698403e-04
6.767084e-04
7.390581e-04
7.473429e-04
6.464058e-04
6.541549e-04
6.463977e-04
6.540726e-04
6.386662e-04
6.388056e-04
6.386611e-04
6.311437e-04
6.614349e-04
6.996955e-04
7.224274e-04
7.070112e-04
6.386565e-04
6.613709e-04
7.302210e-04
7.301919e-04
7.379548e-04
6.992681e-04
6.917414e-04
6.837773e-04
6.762609e-04
6.463939e-04
6.311350e-04
6.311412e-04
6.311401e-04
6.386659e-04
6.616678e-04
6.696223e-04
6.691842e-04
6.766308e-04
7.163479e-04
7.471140e-04
6.466282e-04
6.540756e-04
6.463995e-04
6.461816e-04
6.311371e-04
6.311475e-04
6.388089e-04
6.311420e-04
6.388082e-04
6.614422e-04
6.613766e-04
6.311379e-04
6.311410e-04
6.540612e-04
6.688923e-04
6.764811e-04
6.846015e-04
6.768533e-04
6.541407e-04
6.388784e-04
6.463908e-04
6.311403e-04
6.388106e-04
6.311395e-04
6.311428e-04
6.311394e-04
6.612265e-04
6.774986e-04
6.687467e-04
6.766307e-04
7.240196e-04
7.471223e-04
6.465419e-04
6.311433e-04
6.540686e-04
6.540707e-04
6.386617e-04
6.463256e-04
6.388082e-04
6.463294e-04
6.311416e-04
6.311382e-04
6.386628e-04
6.386700e-04
6.311409e-04
6.464063e-04
6.618830e-04
6.694228e-04
6.693960e-04
6.616578e-04
6.618132e-04
6.388749e-04
6.461747e-04
6.388087e-04
6.311405e-04
6.388063e-04
6.311418e-04
6.463266e-04
6.688948e-04
6.543498e-04
6.539196e-04
6.612209e-04
7.393495e-04
7.473488e-04
6.466140e-04
6.538533e-04
6.463919e-04
6.461767e-04
6.311415e-04
6.463287e-04
6.465488e-04
6.386620e-04
6.386571e-04
6.311403e-04
6.388096e-04
6.388808e-04
6.386681e-04
6.466214e-04
6.543539e-04
6.691174e-04
6.614475e-04
6.620425e-04
6.538537e-04
6.311444e-04
6.311490e-04
6.311369e-04
6.388775e-04
6.311379e-04
6.388020e-04
6.311388e-04
6.693311e-04
6.764154e-04
6.688930e-04
6.615846e-04
7.396039e-04
7.473414e-04
6.463929e-04
6.538487e-04
6.461802e-04
6.386591e-04
6.386580e-04
6.463292e-04
6.311463e-04
6.388054e-04
6.311480e-04
6.388076e-04
6.311425e-04
6.388775e-04
6.311402e-04
6.388844e-04
6.543058e-04
6.615962e-04
6.463309e-04
6.465520e-04
6.538547e-04
6.386587e-04
6.386625e-04
6.311421e-04
6.311415e-04
6.388081e-04
6.311450e-04
6.618050e-04
6.851149e-04
6.689648e-04
6.841493e-04
6.616573e-04
7.395141e-04
7.473510e-04
6.388057e-04
6.311393e-04
6.388107e-04
6.311406e-04
6.311431e-04
6.311413e-04
6.388055e-04
6.311534e-04
6.386589e-04
6.311456e-04
6.538522e-04
6.461802e-04
6.386596e-04
6.461786e-04
6.688926e-04
6.914576e-04
6.912888e-04
7.290440e-04
7.440776e-04
7.439180e-04
7.520360e-04
7.065378e-04
6.311470e-04
6.311457e-04
6.540662e-04
7.078892e-04
6.998586e-04
6.691649e-04
6.616516e-04
6.994866e-04
7.540954e-04
7.550144e-04
6.463968e-04
6.388134e-04
6.386574e-04
6.386622e-04
6.311440e-04
6.311395e-04
6.311409e-04
6.464077e-04
6.537032e-04
6.614418e-04
6.768498e-04
6.616707e-04
6.613668e-04
6.620976e-04
6.923246e-04
6.999204e-04
7.226152e-04
7.448005e-04
7.450173e-04
7.447879e-04
7.529199e-04
7.473014e-04
7.236117e-04
7.157304e-04
7.468309e-04
7.466080e-04
7.074151e-04
6.917261e-04
7.071472e-04
6.846513e-04
7.470982e-04
7.468814e-04
6.687482e-04
6.386539e-04
6.388759e-04
6.388885e-04
6.463237e-04
6.311415e-04
6.463932e-04
6.537054e-04
6.539089e-04
6.770590e-04
6.539147e-04
6.617996e-04
6.613750e-04
6.691085e-04
6.689602e-04
6.999234e-04
6.771398e-04
6.618768e-04
6.386579e-04
6.311442e-04
6.388816e-04
6.769280e-04
7.448232e-04
7.450267e-04
7.450207e-04
6.837732e-04
6.689569e-04
6.766960e-04
6.998315e-04
6.852424e-04
7.393655e-04
7.083619e-04
6.837822e-04
6.465481e-04
6.540658e-04
6.461785e-04
6.388756e-04
6.311405e-04
6.311383e-04
6.538433e-04
6.618935e-04
6.775160e-04
6.466145e-04
6.768522e-04
6.696145e-04
6.773063e-04
7.149968e-04
7.224827e-04
6.693342e-04
6.386553e-04
6.539212e-04
6.386683e-04
6.386645e-04
6.388746e-04
6.693381e-04
6.689692e-04
6.388016e-04
6.311406e-04
6.386626e-04
6.540662e-04
6.616565e-04
6.771326e-04
7.318448e-04
7.085915e-04
6.915211e-04
6.388032e-04
6.386566e-04
6.540653e-04
6.466148e-04
6.388742e-04
6.388059e-04
6.311404e-04
6.386676e-04
6.616632e-04
6.766344e-04
6.698537e-04
6.615867e-04
6.311485e-04
7.218170e-04
7.452940e-04
6.764758e-04
6.540751e-04
6.613670e-04
6.618149e-04
6.542794e-04
6.463322e-04
6.386655e-04
6.386612e-04
6.311446e-04
6.388085e-04
6.311469e-04
6.386585e-04
6.461818e-04
6.616578e-04
7.318551e-04
7.471016e-04
7.468751e-04
7.471110e-04
7.548330e-04
7.473099e-04
7.470821e-04
7.470970e-04
7.473098e-04
7.550578e-04
7.471028e-04
7.550382e-04
7.473149e-04
7.547440e-04
7.473182e-04
7.473331e-04
7.473285e-04
7.549875e-04
7.473157e-04
7.547678e-04
7.470920e-04
7.316084e-04
7.470887e-04
7.549900e-04
7.550622e-04
7.473291e-04
7.550588e-04
7.473189e-04
7.473233e-04
7.473288e-04
7.473179e-04
7.473126e-04
7.473412e-04
7.473267e-04
7.464263e-04
7.473403e-04
7.473323e-04
7.394917e-04
7.240750e-04
7.318238e-04
7.473184e-04
7.473248e-04
7.470947e-04
7.470947e-04
7.550000e-04
7.470985e-04
7.466230e-04
7.162569e-04
7.459644e-04
7.473281e-04
7.549948e-04
7.473207e-04
7.391185e-04
7.545388e-04
7.550654e-04
7.473294e-04
7.468715e-04
7.470868e-04
7.473202e-04
7.395704e-04
7.473212e-04
7.473246e-04
7.473231e-04
7.473264e-04
7.473325e-04
7.237938e-04
6.999448e-04
6.618802e-04
6.466174e-04
6.543711e-04
6.539214e-04
6.543625e-04
6.463970e-04
6.694103e-04
6.766947e-04
6.541324e-04
6.386581e-04
6.463970e-04
6.848679e-04
7.000725e-04
7.308529e-04
6.994583e-04
6.539155e-04
6.386638e-04
6.618900e-04
6.540754e-04
6.311424e-04
6.388775e-04
6.311451e-04
6.311407e-04
6.463940e-04
6.388806e-04
6.388782e-04
6.388833e-04
6.615868e-04
6.695430e-04
7.393679e-04
7.240929e-04
6.842227e-04
6.696267e-04
6.539151e-04
6.541440e-04
6.541377e-04
6.543650e-04
6.536954e-04
6.841530e-04
6.693313e-04
6.540645e-04
6.615866e-04
6.691052e-04
6.693918e-04
6.693936e-04
6.923967e-04
6.768982e-04
6.466181e-04
6.386713e-04
6.613622e-04
6.539158e-04
6.540702e-04
6.461837e-04
6.466159e-04
6.461834e-04
6.386573e-04
6.464049e-04
6.386676e-04
6.386665e-04
6.620246e-04
6.616638e-04
7.472582e-04
7.472568e-04
6.616473e-04
6.771511e-04
6.541363e-04
6.388108e-04
6.461877e-04
6.461757e-04
6.388774e-04
6.844490e-04
6.994291e-04
6.466309e-04
6.691058e-04
6.693261e-04
6.695476e-04
6.770742e-04
6.693944e-04
6.618767e-04
6.616669e-04
6.689638e-04
6.689666e-04
6.614385e-04
6.538488e-04
6.311442e-04
6.464005e-04
6.461792e-04
6.311438e-04
6.538392e-04
6.539213e-04
6.693348e-04
6.768558e-04
6.620311e-04
7.395968e-04
7.470981e-04
6.618105e-04
6.691799e-04
6.697573e-04
6.466119e-04
6.618036e-04
6.538468e-04
6.311352e-04
6.989853e-04
7.069464e-04
6.464031e-04
6.540581e-04
6.691067e-04
6.615795e-04
6.541322e-04
6.543522e-04
6.543642e-04
6.620287e-04
6.997000e-04
7.069252e-04
6.842108e-04
6.687365e-04
6.461778e-04
6.539123e-04
6.691688e-04
6.769208e-04
6.923388e-04
6.766956e-04
6.768532e-04
6.845858e-04
6.770668e-04
7.473374e-04
7.550698e-04
6.620992e-04
6.697666e-04
6.620319e-04
6.618715e-04
6.541331e-04
6.541297e-04
6.386595e-04
6.913048e-04
6.994857e-04
6.618107e-04
6.764738e-04
6.769086e-04
6.844259e-04
7.074309e-04
6.846500e-04
6.923903e-04
7.003449e-04
7.381533e-04
7.463259e-04
7.461076e-04
7.378568e-04
7.075581e-04
7.071961e-04
7.299771e-04
7.526976e-04
7.304210e-04
7.224004e-04
7.071471e-04
7.151744e-04
7.083305e-04
7.470955e-04
7.471113e-04
6.690991e-04
6.615878e-04
6.464013e-04
6.466299e-04
6.539173e-04
6.616607e-04
6.843598e-04
6.850831e-04
6.850764e-04
7.071377e-04
7.073676e-04
6.992545e-04
6.998388e-04
7.066944e-04
6.996833e-04
7.067671e-04
7.144942e-04
7.222383e-04
7.221668e-04
7.297786e-04
7.376541e-04
6.990132e-04
7.369950e-04
7.224494e-04
7.222270e-04
7.226056e-04
7.219467e-04
7.142103e-04
7.076398e-04
6.914375e-04
7.473384e-04
7.473448e-04
6.463999e-04
6.311394e-04
6.388044e-04
6.539274e-04
6.616622e-04
6.768383e-04
6.923335e-04
7.000623e-04
6.614266e-04
6.769111e-04
6.841557e-04
6.543501e-04
6.541412e-04
6.386558e-04
6.614439e-04
6.613575e-04