# vtk DataFile Version 3.0
Cu single-crystal phase-field data
ASCII
DATASET STRUCTURED_POINTS
DIMENSIONS 32 32 16
ORIGIN 0 0 0
SPACING 5.000000e-07 5.000000e-07 5.000000e-07
POINT_DATA 16384
SCALARS crack float 1
LOOKUP_TABLE default
5.663480e-04
5.663493e-04
5.662740e-04
5.586184e-04
5.586050e-04
5.586059e-04
5.586171e-04
5.586121e-04
5.586074e-04
5.586204e-04
5.663488e-04
5.663491e-04
5.586119e-04
5.586077e-04
5.663477e-04
5.586067e-04
5.583847e-04
5.586074e-04
5.586311e-04
5.586264e-04
5.663482e-04
5.662785e-04
5.663472e-04
5.663480e-04
5.662745e-04
5.662743e-04
5.663492e-04
5.662733e-04
5.586083e-04
5.586016e-04
5.586100e-04
5.586197e-04
5.586035e-04
5.660234e-04
5.431179e-04
5.506232e-04
5.506245e-04
5.508508e-04
5.504040e-04
5.508584e-04
5.581531e-04
5.653725e-04
5.574732e-04
5.423488e-04
5.574687e-04
5.662746e-04
5.663471e-04
5.662784e-04
5.581597e-04
5.586252e-04
5.508814e-04
5.586183e-04
5.508658e-04
5.585984e-04
5.662761e-04
5.658176e-04
5.431124e-04
5.661073e-04
5.661231e-04
5.660430e-04
5.583810e-04
5.660477e-04
5.663456e-04
5.586233e-04
5.583733e-04
5.585917e-04
5.503999e-04
5.431180e-04
5.505570e-04
5.503989e-04
5.353579e-04
5.581559e-04
5.586085e-04
5.663492e-04
5.662759e-04
5.583789e-04
5.585980e-04
5.583196e-04
5.429855e-04
5.430992e-04
5.582966e-04
5.585989e-04
5.586104e-04
5.663453e-04
5.506320e-04
5.586123e-04
5.586004e-04
5.583725e-04
5.585224e-04
5.661196e-04
5.658904e-04
5.583839e-04
5.585915e-04
5.663361e-04
5.662720e-04
5.663504e-04
5.583792e-04
5.586020e-04
5.585675e-04
5.662751e-04
5.663464e-04
5.662713e-04
5.585999e-04
5.585974e-04
5.586199e-04
5.662545e-04
5.662712e-04
5.586145e-04
5.585179e-04
5.583663e-04
5.583821e-04
5.660453e-04
5.663349e-04
5.660343e-04
5.584008e-04
5.658110e-04
5.506237e-04
5.583749e-04
5.585994e-04
5.506271e-04
5.662742e-04
5.663459e-04
5.663457e-04
5.662631e-04
5.585937e-04
5.663445e-04
5.586000e-04
5.663485e-04
5.583751e-04
5.585906e-04
5.586032e-04
5.660507e-04
5.660253e-04
5.585958e-04
5.663409e-04
5.586066e-04
5.662702e-04
5.658829e-04
5.663448e-04
5.583755e-04
5.663433e-04
5.663423e-04
5.586102e-04
5.586100e-04
5.660323e-04
5.663432e-04
5.660400e-04
5.508523e-04
5.660413e-04
5.585989e-04
5.585998e-04
5.583755e-04
5.586087e-04
5.662743e-04
5.586063e-04
5.662700e-04
5.662684e-04
5.660447e-04
5.585983e-04
5.662781e-04
5.583834e-04
5.586236e-04
5.662752e-04
5.663446e-04
5.661151e-04
5.508522e-04
5.662597e-04
5.586096e-04
5.586016e-04
5.660300e-04
5.662537e-04
5.583854e-04
5.663318e-04
5.661169e-04
5.658204e-04
5.586145e-04
5.586093e-04
5.586052e-04
5.583643e-04
5.658136e-04
5.579169e-04
5.585891e-04
5.586009e-04
5.586028e-04
5.586102e-04
5.586109e-04
5.585210e-04
5.663462e-04
5.662694e-04
5.583706e-04
5.585910e-04
5.660436e-04
5.586024e-04
5.583860e-04
5.586038e-04
5.662787e-04
5.581450e-04
5.582955e-04
5.585986e-04
5.662725e-04
5.586102e-04
5.586075e-04
5.663485e-04
5.586166e-04
5.585988e-04
5.662652e-04
5.663478e-04
5.579418e-04
5.424393e-04
5.572340e-04
5.573891e-04
5.579158e-04
5.424307e-04
5.581150e-04
5.585968e-04
5.663362e-04
5.585601e-04
5.583542e-04
5.585942e-04
5.660414e-04
5.583860e-04
5.586031e-04
5.662751e-04
5.663486e-04
5.586099e-04
5.586022e-04
5.585968e-04
5.585990e-04
5.583745e-04
5.658220e-04
5.656669e-04
5.656661e-04
5.579311e-04
5.570220e-04
5.579397e-04
5.663495e-04
5.586049e-04
5.586197e-04
5.586020e-04
5.508463e-04
5.660486e-04
5.582876e-04
5.663455e-04
5.582999e-04
5.506346e-04
5.353796e-04
5.581570e-04
5.663482e-04
5.585999e-04
5.662745e-04
5.586023e-04
5.583763e-04
5.581502e-04
5.508584e-04
5.508506e-04
5.662799e-04
5.586055e-04
5.586112e-04
5.586064e-04
5.586087e-04
5.585877e-04
5.583941e-04
5.662697e-04
5.585908e-04
5.585948e-04
5.663470e-04
5.586120e-04
5.586030e-04
5.663470e-04
5.586039e-04
5.663430e-04
5.663426e-04
5.663416e-04
5.660464e-04
5.662677e-04
5.586103e-04
5.586063e-04
5.586048e-04
5.583730e-04
5.585996e-04
5.663432e-04
5.663447e-04
5.662738e-04
5.586086e-04
5.586016e-04
5.586109e-04
5.586038e-04
5.662784e-04
5.585994e-04
5.586011e-04
5.585947e-04
5.586007e-04
5.661170e-04
5.583737e-04
5.663458e-04
5.586084e-04
5.662704e-04
5.583851e-04
5.663383e-04
5.586007e-04
5.583656e-04
5.586061e-04
5.585958e-04
5.586013e-04
5.662728e-04
5.662784e-04
5.585947e-04
5.662729e-04
5.583795e-04
5.586032e-04
5.585265e-04
5.585915e-04
5.586090e-04
5.662769e-04
5.662604e-04
5.583856e-04
5.508621e-04
5.583751e-04
5.662733e-04
5.663495e-04
5.586074e-04
5.585997e-04
5.586045e-04
5.586061e-04
5.585941e-04
5.585965e-04
5.586082e-04
5.662733e-04
5.663475e-04
5.585277e-04
5.583842e-04
5.660469e-04
5.583784e-04
5.586020e-04
5.586093e-04
5.586124e-04
5.662762e-04
5.663430e-04
5.586052e-04
5.663416e-04
5.662659e-04
5.662743e-04
5.663442e-04
5.660431e-04
5.586035e-04
5.662709e-04
5.663457e-04
5.507756e-04
5.506262e-04
5.508529e-04
5.583769e-04
5.660499e-04
5.586159e-04
5.508593e-04
5.586031e-04
5.662742e-04
5.586055e-04
5.581511e-04
5.581302e-04
5.586138e-04
5.662644e-04
5.583835e-04
5.660447e-04
5.658932e-04
5.660409e-04
5.586122e-04
5.586103e-04
5.585937e-04
5.586039e-04
5.662733e-04
5.586134e-04
5.662658e-04
5.586068e-04
5.585984e-04
5.658211e-04
5.585895e-04
5.585981e-04
5.586004e-04
5.662637e-04
5.506321e-04
5.505966e-04
5.506145e-04
5.661201e-04
5.583897e-04
5.586173e-04
5.585934e-04
5.662700e-04
5.663439e-04
5.663434e-04
5.586093e-04
5.583686e-04
5.663405e-04
5.658217e-04
5.506212e-04
5.585962e-04
5.660397e-04
5.586042e-04
5.586289e-04
5.662697e-04
5.586020e-04
5.508521e-04
5.586055e-04
5.586189e-04
5.508489e-04
5.662781e-04
5.586171e-04
5.663447e-04
5.586000e-04
5.586050e-04
5.508545e-04
5.506337e-04
5.426575e-04
5.498710e-04
5.504143e-04
5.508587e-04
5.583809e-04
5.586049e-04
5.583761e-04
5.581510e-04
5.662750e-04
5.585949e-04
5.583754e-04
5.661218e-04
5.663379e-04
5.506156e-04
5.503236e-04
5.428737e-04
5.574321e-04
5.586167e-04
5.663415e-04
5.663446e-04
5.662711e-04
5.586077e-04
5.508615e-04
5.583940e-04
5.662774e-04
5.663433e-04
5.586141e-04
5.663455e-04
5.662739e-04
5.586011e-04
5.508581e-04
5.431146e-04
5.428080e-04
5.499402e-04
5.580778e-04
5.586011e-04
5.586113e-04
5.586073e-04
5.581300e-04
5.353682e-04
5.431091e-04
5.586042e-04
5.506247e-04
5.581345e-04
5.662696e-04
5.428820e-04
5.508575e-04
5.661180e-04
5.503997e-04
5.662107e-04
5.663462e-04
5.663426e-04
5.585611e-04
5.585920e-04
5.585898e-04
5.586040e-04
5.585881e-04
5.660465e-04
5.583810e-04
5.662712e-04
5.508540e-04
5.583724e-04
5.585948e-04
5.582998e-04
5.508505e-04
5.498691e-04
5.503966e-04
5.508565e-04
5.586143e-04
5.586102e-04
5.276342e-04
5.353602e-04
5.353682e-04
5.428961e-04
5.431132e-04
5.501748e-04
5.662800e-04
5.503906e-04
5.658192e-04
5.663462e-04
5.585967e-04
5.586100e-04
5.658930e-04
5.581560e-04
5.585961e-04
5.586021e-04
5.586118e-04
5.662710e-04
5.586041e-04
5.654174e-04
5.585649e-04
5.586043e-04
5.586121e-04
5.508581e-04
5.585916e-04
5.663474e-04
5.582998e-04
5.353553e-04
5.581271e-04
5.583863e-04
5.586109e-04
5.662821e-04
5.586230e-04
5.586225e-04
5.431079e-04
5.507757e-04
5.506402e-04
5.508522e-04
5.586104e-04
5.663508e-04
5.585765e-04
5.586055e-04
5.586055e-04
5.586121e-04
5.506334e-04
5.508531e-04
5.583762e-04
5.586201e-04
5.663416e-04
5.663457e-04
5.662721e-04
4.966328e-04
5.567704e-04
5.663445e-04
5.586004e-04
5.662705e-04
5.663438e-04
5.663417e-04
5.586101e-04
5.508592e-04
5.586052e-04
5.579242e-04
5.586263e-04
5.663552e-04
5.662748e-04
5.586060e-04
5.660482e-04
5.508579e-04
5.585262e-04
5.586086e-04
5.586073e-04
5.586032e-04
5.586091e-04
5.585916e-04
5.586155e-04
5.586127e-04
5.428854e-04
5.508440e-04
5.661214e-04
5.663440e-04
5.663494e-04
5.663457e-04
5.121238e-04
4.811441e-04
5.565616e-04
5.586079e-04
5.586040e-04
5.508595e-04
5.585264e-04
5.586028e-04
5.586198e-04
5.586042e-04
5.662817e-04
5.431092e-04
5.586322e-04
5.662772e-04
5.585983e-04
5.663437e-04
5.663458e-04
5.660455e-04
5.586065e-04
5.662758e-04
5.586040e-04
5.586046e-04
5.508587e-04
5.581590e-04
5.663485e-04
5.586109e-04
5.428853e-04
5.586128e-04
5.663493e-04
5.663512e-04
5.663493e-04
5.196447e-04
4.964045e-04
4.811436e-04
5.563371e-04
5.586055e-04
5.586147e-04
5.586121e-04
5.586136e-04
5.663437e-04
5.586101e-04
5.662724e-04
5.663480e-04
5.583006e-04
5.586049e-04
5.586080e-04
5.586007e-04
5.660458e-04
5.585959e-04
5.660461e-04
5.662732e-04
5.663445e-04
5.662745e-04
5.585995e-04
5.586090e-04
5.585919e-04
5.586116e-04
5.583874e-04
5.504292e-04
5.426432e-04
5.586071e-04
5.585317e-04
5.583747e-04
5.121295e-04
4.809189e-04
4.809134e-04
5.036872e-04
5.583217e-04
5.586077e-04
5.586174e-04
5.586108e-04
5.585998e-04
5.586096e-04
5.586079e-04
5.662798e-04
5.581489e-04
5.586039e-04
5.586166e-04
5.586038e-04
5.586206e-04
5.585251e-04
5.662748e-04
5.586028e-04
5.663447e-04
5.586284e-04
5.663473e-04
5.586040e-04
5.586061e-04
5.663503e-04
5.583849e-04
5.574705e-04
5.649591e-04
5.583808e-04
5.583797e-04
5.431252e-04
4.959613e-04
4.959561e-04
5.036956e-04
5.118776e-04
5.505879e-04
5.583864e-04
5.586094e-04
5.586067e-04
5.586071e-04
5.508576e-04
5.353738e-04
5.504022e-04
5.508579e-04
5.586133e-04
5.586103e-04
5.586077e-04
5.508582e-04
5.507769e-04
5.663463e-04
5.662734e-04
5.586071e-04
5.586056e-04
5.585981e-04
5.583885e-04
5.586208e-04
5.586021e-04
5.585926e-04
5.662776e-04
5.662433e-04
5.426356e-04
5.430930e-04
5.116667e-04
5.423451e-04
5.419828e-04
5.572370e-04
5.508144e-04
5.585815e-04
5.586088e-04
5.586101e-04
5.586175e-04
5.586122e-04
5.508599e-04
5.351481e-04
5.426642e-04
5.586052e-04
5.663532e-04
5.586124e-04
5.583814e-04
5.583622e-04
5.508640e-04
5.662754e-04
5.586167e-04
5.586115e-04
5.586020e-04
5.663452e-04
5.586054e-04
5.583757e-04
5.586197e-04
5.662785e-04
5.663500e-04
5.658967e-04
5.503151e-04
5.273914e-04
5.275268e-04
5.583646e-04
5.661119e-04
5.583792e-04
5.506284e-04
5.586048e-04
5.586060e-04
5.586037e-04
5.586062e-04
5.586105e-04
5.586059e-04
5.351319e-04
5.351396e-04
5.431071e-04
5.586215e-04
5.586043e-04
5.586008e-04
5.663446e-04
5.583793e-04
5.585994e-04
5.586073e-04
5.586103e-04
5.508542e-04
5.585985e-04
5.508541e-04
5.585963e-04
5.586109e-04
5.586010e-04
5.662767e-04
5.660414e-04
5.428721e-04
5.585091e-04
5.508532e-04
5.663343e-04
5.663392e-04
5.660507e-04
5.583726e-04
5.586105e-04
5.663461e-04
5.586071e-04
5.586074e-04
5.586022e-04
5.660499e-04
5.506240e-04
5.508431e-04
5.660501e-04
5.586101e-04
5.586069e-04
5.585996e-04
5.585894e-04
5.506357e-04
5.586027e-04
5.585986e-04
5.586013e-04
5.585974e-04
5.585989e-04
5.585973e-04
5.586047e-04
5.586135e-04
5.583949e-04
5.586065e-04
5.585919e-04
5.662588e-04
5.663347e-04
5.662580e-04
5.662664e-04
5.662739e-04
5.586193e-04
5.586023e-04
5.662717e-04
5.663449e-04
5.662672e-04
5.586000e-04
5.662711e-04
5.663462e-04
5.660185e-04
5.662690e-04
5.663474e-04
5.663490e-04
5.583820e-04
5.585922e-04
5.586012e-04
5.586010e-04
5.585965e-04
5.586013e-04
5.585968e-04
5.663422e-04
5.586056e-04
5.586009e-04
5.586016e-04
5.663435e-04
5.586008e-04
5.586178e-04
5.586088e-04
5.662614e-04
5.660455e-04
5.660372e-04
5.581514e-04
5.585240e-04
5.586085e-04
5.583768e-04
5.586017e-04
5.662704e-04
5.586067e-04
5.663434e-04
5.662772e-04
5.583870e-04
5.585984e-04
5.586140e-04
5.662708e-04
5.663501e-04
5.586065e-04
5.585993e-04
5.663418e-04
5.586000e-04
5.585970e-04
5.585989e-04
5.585974e-04
5.586024e-04
5.586073e-04
5.586118e-04
5.586048e-04
5.586021e-04
5.586076e-04
5.586011e-04
5.662739e-04
5.663479e-04
5.585237e-04
5.581600e-04
5.660544e-04
5.586047e-04
5.586068e-04
5.658192e-04
5.585919e-04
5.586051e-04
5.586156e-04
5.662669e-04
5.663355e-04
5.663342e-04
5.660426e-04
5.663355e-04
5.663458e-04
5.663466e-04
5.658227e-04
5.585969e-04
5.586090e-04
5.586016e-04
5.586122e-04
5.662711e-04
5.586045e-04
5.585970e-04
5.586004e-04
5.586009e-04
5.586070e-04
5.586060e-04
5.586137e-04
5.585928e-04
5.583730e-04
5.662652e-04
5.663384e-04
5.585936e-04
5.662721e-04
5.585973e-04
5.662730e-04
5.663451e-04
5.660084e-04
5.651313e-04
5.574723e-04
5.572000e-04
5.658885e-04
5.661173e-04
5.662669e-04
5.585907e-04
5.585946e-04
5.662739e-04
5.661187e-04
5.662759e-04
5.586133e-04
5.583685e-04
5.585213e-04
5.663414e-04
5.662675e-04
5.585997e-04
5.585991e-04
5.586012e-04
5.585999e-04
5.585985e-04
5.585997e-04
5.585959e-04
5.583754e-04
5.586082e-04
5.585970e-04
5.662685e-04
5.663458e-04
5.662731e-04
5.586041e-04
5.662689e-04
5.662753e-04
5.663377e-04
5.662771e-04
5.586085e-04
5.586108e-04
5.662763e-04
5.660481e-04
5.662573e-04
5.663445e-04
5.663467e-04
5.660485e-04
5.586101e-04
5.585981e-04
5.585954e-04
5.585885e-04
5.662670e-04
5.586032e-04
5.585943e-04
5.586068e-04
5.586010e-04
5.662614e-04
5.585970e-04
5.663364e-04
5.663448e-04
5.586026e-04
5.581240e-04
5.585871e-04
5.585974e-04
5.663454e-04
5.586010e-04
5.583840e-04
5.662685e-04
5.586241e-04
5.658202e-04
5.501728e-04
5.586046e-04
5.586178e-04
5.660494e-04
5.585965e-04
5.662729e-04
5.662747e-04
5.586134e-04
5.583832e-04
5.581473e-04
5.583769e-04
5.585960e-04
5.508592e-04
5.585924e-04
5.586135e-04
5.586004e-04
5.663413e-04
5.586214e-04
5.663434e-04
5.661160e-04
5.663343e-04
5.660436e-04
5.586054e-04
5.586116e-04
5.662673e-04
5.586018e-04
5.586041e-04
5.585972e-04
5.582900e-04
5.663350e-04
5.585192e-04
5.581403e-04
5.585847e-04
5.663475e-04
5.586031e-04
5.585994e-04
5.660415e-04
5.583777e-04
5.586160e-04
5.586220e-04
5.508796e-04
5.586066e-04
5.586097e-04
5.583798e-04
5.586053e-04
5.586074e-04
5.586025e-04
5.586009e-04
5.586059e-04
5.586069e-04
5.586092e-04
5.662729e-04
5.663460e-04
5.662758e-04
5.586107e-04
5.662753e-04
5.663468e-04
5.585251e-04
5.586053e-04
5.586021e-04
5.586078e-04
5.663455e-04
5.586231e-04
5.586233e-04
5.586096e-04
5.586078e-04
5.586062e-04
5.586131e-04
5.586289e-04
5.586120e-04
5.586133e-04
5.586085e-04
5.663508e-04
5.653719e-04
5.506341e-04
5.508616e-04
5.428846e-04
5.353658e-04
5.353679e-04
5.508531e-04
5.581539e-04
5.585984e-04
5.663385e-04
5.661206e-04
5.662688e-04
5.662815e-04
5.663482e-04
5.662836e-04
5.585944e-04
5.586183e-04
5.586278e-04
5.658187e-04
5.661227e-04
5.660473e-04
5.662789e-04
5.583009e-04
5.583752e-04
5.586167e-04
5.662741e-04
5.586062e-04
5.586095e-04
5.586062e-04
5.663475e-04
5.586252e-04
5.273939e-04
5.575849e-04
5.036946e-04
4.884313e-04
4.963892e-04
4.961729e-04
4.966216e-04
4.959586e-04
5.039103e-04
5.269240e-04
5.341579e-04
5.415087e-04
5.273524e-04
5.271704e-04
5.423825e-04
5.583400e-04
5.565641e-04
4.734043e-04
4.733982e-04
4.963116e-04
4.965394e-04
4.888022e-04
4.733945e-04
4.886520e-04
4.886521e-04
4.886549e-04
4.810615e-04
4.809233e-04
4.809180e-04
4.810621e-04
4.733983e-04
5.663580e-04
5.430347e-04
5.342123e-04
5.114394e-04
4.886500e-04
4.966096e-04
4.966098e-04
4.966041e-04
4.809187e-04
5.261884e-04
5.116480e-04
5.116451e-04
5.034729e-04
5.189467e-04
5.501197e-04
5.655364e-04
5.572250e-04
4.961746e-04
4.809257e-04
4.810521e-04
4.733968e-04
4.963241e-04
4.811353e-04
4.809174e-04
4.884382e-04
4.809145e-04
4.961046e-04
4.961057e-04
4.809113e-04
4.809136e-04
4.885829e-04
4.811325e-04
5.663591e-04
5.508584e-04
5.112094e-04
5.271332e-04
5.039151e-04
4.885899e-04
4.959570e-04
5.036275e-04
4.884342e-04
5.418790e-04
5.498478e-04
4.963967e-04
4.961809e-04
5.193169e-04
5.114310e-04
5.187426e-04
4.961683e-04
4.963186e-04
4.888001e-04
4.809317e-04
4.884351e-04
4.884340e-04
4.809131e-04
4.809106e-04
4.884337e-04
4.884385e-04
4.886557e-04
4.733967e-04
4.810590e-04
4.887972e-04
4.809143e-04
4.733940e-04
5.663607e-04
5.583794e-04
4.964077e-04
4.886531e-04
5.109939e-04
5.118890e-04
5.042978e-04
4.733909e-04
4.810673e-04
5.410836e-04
5.571590e-04
4.886558e-04
4.961677e-04
4.886523e-04
4.884347e-04
4.886524e-04
4.809218e-04
4.888046e-04
4.733926e-04
4.809204e-04
4.885837e-04
4.885851e-04
4.733968e-04
4.733960e-04
4.809155e-04
4.809148e-04
4.884327e-04
4.963217e-04
4.811305e-04
4.809170e-04
4.963303e-04
4.961769e-04
5.586089e-04
5.586026e-04
5.190967e-04
5.114331e-04
5.041245e-04
4.809141e-04
5.042898e-04
5.040763e-04
4.733906e-04
5.185139e-04
5.430688e-04
5.569261e-04
5.490342e-04
5.567581e-04
5.646563e-04
5.642301e-04
5.342064e-04
5.187284e-04
5.186564e-04
5.185113e-04
5.335617e-04
5.337690e-04
5.185125e-04
5.109910e-04
5.111420e-04
5.260263e-04
5.563282e-04
5.637846e-04
5.339139e-04
5.264684e-04
5.567828e-04
5.569994e-04
5.583684e-04
5.583891e-04
5.112081e-04
5.034696e-04
4.963946e-04
5.040646e-04
4.884294e-04
5.115840e-04
5.188850e-04
4.959488e-04
5.416613e-04
5.342097e-04
5.571999e-04
5.569129e-04
5.566932e-04
5.417184e-04
5.648726e-04
5.569842e-04
5.567572e-04
5.650868e-04
5.490190e-04
5.571270e-04
5.571899e-04
5.491716e-04
5.642180e-04
5.653216e-04
5.565428e-04
5.567604e-04
5.339919e-04
5.642205e-04
5.571339e-04
5.260265e-04
5.662810e-04
5.586163e-04
4.809134e-04
4.810628e-04
4.811290e-04
4.884352e-04
5.043399e-04
5.196141e-04
5.350426e-04
5.427817e-04
5.504837e-04
5.428614e-04
5.118782e-04
5.036957e-04
4.884340e-04
4.959555e-04
5.118077e-04
4.959491e-04
5.191675e-04
5.268331e-04
5.191205e-04
5.191608e-04
5.268402e-04
5.346060e-04
5.341416e-04
5.187339e-04
4.959497e-04
4.966076e-04
5.118765e-04
5.118742e-04
4.961095e-04
4.884330e-04
5.586177e-04
5.586197e-04
4.885924e-04
4.809126e-04
4.888664e-04
5.118013e-04
5.036951e-04
5.115824e-04
5.195338e-04
5.266260e-04
4.884339e-04
5.344269e-04
5.424025e-04
5.188849e-04
4.809233e-04
4.961051e-04
5.040604e-04
4.885793e-04
4.966176e-04
4.884307e-04
4.884296e-04
4.884321e-04
4.959542e-04
4.961728e-04
4.811326e-04
4.733949e-04
4.811341e-04
4.809158e-04
4.809217e-04
4.959508e-04
4.884315e-04
5.037027e-04
5.581746e-04
5.583836e-04
4.884368e-04
4.884334e-04
5.040620e-04
4.884325e-04
4.886649e-04
5.036993e-04
5.113646e-04
4.811322e-04
4.963883e-04
5.039104e-04
5.421065e-04
5.186750e-04
4.809126e-04
4.885809e-04
4.965531e-04
4.961759e-04
4.888761e-04
4.809213e-04
4.811291e-04
4.886494e-04
4.965411e-04
4.963949e-04
4.961707e-04
4.885918e-04
4.811349e-04
5.039236e-04
5.116562e-04
5.036994e-04
5.114362e-04
5.112085e-04
5.660585e-04
5.586187e-04
4.733944e-04
4.811381e-04
4.888704e-04
5.040625e-04
4.888791e-04
5.191021e-04
5.110040e-04
4.887929e-04
5.036909e-04
5.496229e-04
5.348811e-04
5.112190e-04
4.733969e-04
4.733999e-04
4.885863e-04
4.884384e-04
4.810638e-04
4.733994e-04
4.810602e-04
4.886504e-04
4.888688e-04
5.042825e-04
4.886511e-04
4.809146e-04
4.886556e-04
5.115872e-04
5.195324e-04
5.114257e-04
5.041221e-04
4.963188e-04
5.583986e-04
5.585999e-04
4.963950e-04
4.809144e-04
4.811353e-04
4.965392e-04
5.041521e-04
5.339934e-04
5.188779e-04
4.961715e-04
5.492495e-04
5.421760e-04
5.423116e-04
5.039192e-04
4.809149e-04
4.733954e-04
4.733954e-04
4.809145e-04
4.733966e-04
4.733953e-04
4.809205e-04
4.810625e-04
4.886546e-04
4.963278e-04
4.809155e-04
4.733924e-04
4.884341e-04
5.036953e-04
5.043479e-04
5.191793e-04
5.191061e-04
4.886587e-04
5.661297e-04
5.506499e-04
5.041463e-04
4.888683e-04
4.811328e-04
4.733975e-04
5.038435e-04
5.419512e-04
5.189494e-04
5.580140e-04
5.577889e-04
5.507918e-04
5.426229e-04
5.112200e-04
4.734053e-04
4.733946e-04
4.809113e-04
4.809180e-04
4.811334e-04
4.811437e-04
4.809207e-04
4.809208e-04
4.810670e-04
4.733973e-04
4.810685e-04
4.809136e-04
4.886556e-04
4.959561e-04
5.118696e-04
5.266997e-04
5.037000e-04
4.811411e-04
5.583908e-04
5.506443e-04
5.040606e-04
4.966286e-04
4.888665e-04
4.886575e-04
5.040607e-04
5.339880e-04
5.342179e-04
5.653373e-04
5.421559e-04
5.657478e-04
5.585532e-04
4.884376e-04
4.733952e-04
4.810633e-04
4.734010e-04
5.337689e-04
5.565658e-04
5.565429e-04
4.884330e-04
4.885867e-04
4.809156e-04
4.810648e-04
4.733906e-04
4.811306e-04
4.963168e-04
4.961731e-04
5.270663e-04
5.343623e-04
5.113593e-04
4.884330e-04
5.663566e-04
5.583126e-04
5.187467e-04
5.039155e-04
4.966356e-04
4.959528e-04
5.041392e-04
5.416644e-04
5.339793e-04
5.655293e-04
5.644592e-04
5.644358e-04
5.507490e-04
5.349094e-04
5.112089e-04
5.034730e-04
5.501522e-04
5.585288e-04
5.569765e-04
5.505448e-04
5.582923e-04
5.188852e-04
5.036972e-04
4.809079e-04
4.888019e-04
4.887996e-04
4.884351e-04
4.963921e-04
5.116677e-04
5.346676e-04
5.114323e-04
4.963168e-04
5.586208e-04
5.586126e-04
5.118751e-04
5.043437e-04
5.034711e-04
4.963876e-04
5.036235e-04
5.417318e-04
5.573582e-04
5.417312e-04
5.112048e-04
5.111417e-04
5.193143e-04
5.653257e-04
5.348647e-04
5.653157e-04
5.574140e-04
5.036921e-04
4.810595e-04
4.733976e-04
5.500419e-04
5.425900e-04
5.494018e-04
5.111461e-04
4.809119e-04
4.811370e-04
4.888073e-04
4.963193e-04
5.118933e-04
5.196295e-04
5.352472e-04
5.039104e-04
5.662752e-04
5.662746e-04
5.041421e-04
4.966302e-04
4.966186e-04
5.038471e-04
4.961824e-04
5.039209e-04
5.491845e-04
5.644294e-04
5.662370e-04
5.337070e-04
4.733905e-04
5.268336e-04
5.644311e-04
5.572155e-04
5.186644e-04
4.809162e-04
4.733944e-04
4.810642e-04
5.578982e-04
5.662251e-04
5.646652e-04
4.733929e-04
4.810622e-04
4.733972e-04
4.810634e-04
4.733927e-04
4.886555e-04
5.111470e-04
5.114321e-04
5.189545e-04
5.660364e-04
5.662832e-04
4.884412e-04
4.963264e-04
4.966101e-04
4.961031e-04
4.963341e-04
4.811348e-04
4.733939e-04
4.810601e-04
5.572059e-04
5.565513e-04
4.810664e-04
5.185167e-04
5.567633e-04
5.648995e-04
5.113765e-04
4.885847e-04
4.810667e-04
5.351056e-04
5.585749e-04
5.574359e-04
5.640048e-04
4.963199e-04
4.811355e-04
4.811313e-04
4.888041e-04
4.885830e-04
4.733936e-04
4.885828e-04
4.884415e-04
4.961709e-04
5.431489e-04
5.586240e-04
4.961066e-04
4.963935e-04
4.963224e-04
4.886549e-04
4.811364e-04
4.733959e-04
4.733958e-04
4.809177e-04
5.561215e-04
5.640073e-04
4.733999e-04
5.111437e-04
5.488166e-04
5.566979e-04
4.885853e-04
4.886559e-04
5.272875e-04
5.428717e-04
5.576625e-04
5.567650e-04
5.563369e-04
4.809145e-04
4.733925e-04
4.811327e-04
4.888042e-04
4.733952e-04
4.885836e-04
4.733923e-04
4.961098e-04
4.961738e-04
5.506466e-04
5.586165e-04
4.884352e-04
5.038404e-04
4.963944e-04
4.886502e-04
4.809140e-04
4.811331e-04
4.734018e-04
4.811324e-04
5.563340e-04
5.567710e-04
4.733981e-04
5.335580e-04
5.578651e-04
5.662380e-04
5.264031e-04
4.963258e-04
5.273582e-04
5.583211e-04
5.569974e-04
5.561131e-04
5.563359e-04
5.260329e-04
4.733956e-04
4.733982e-04
4.733906e-04
4.811341e-04
4.809144e-04
4.959627e-04
5.043800e-04
4.963853e-04
5.353688e-04
5.586106e-04
4.959588e-04
4.964001e-04
4.884339e-04
4.886490e-04
4.810594e-04
4.733955e-04
4.809122e-04
4.810606e-04
5.494045e-04
5.653250e-04
5.339811e-04
5.659752e-04
5.648942e-04
5.430661e-04
5.661724e-04
5.335528e-04
5.660284e-04
5.585451e-04
5.639998e-04
5.561107e-04
5.488079e-04
5.185173e-04
4.809136e-04
4.733939e-04
4.734011e-04
4.809115e-04
4.966164e-04
5.119032e-04
5.120958e-04
5.189642e-04
5.503298e-04
5.586141e-04
4.886606e-04
4.964115e-04
4.886526e-04
4.963279e-04
4.809210e-04
4.810603e-04
4.809161e-04
4.733974e-04
5.036917e-04
5.419508e-04
5.646824e-04
5.492673e-04
4.809115e-04
5.036262e-04
5.574394e-04
5.498928e-04
5.576561e-04
5.415249e-04
5.339984e-04
5.260340e-04
5.185165e-04
4.886496e-04
4.733888e-04
4.733950e-04
4.733938e-04
4.809203e-04
5.039220e-04
5.118780e-04
5.114379e-04
5.188863e-04
5.276202e-04
5.583849e-04
4.888836e-04
4.963310e-04
4.886550e-04
4.884374e-04
4.733909e-04
4.734013e-04
4.810633e-04
4.733958e-04
4.810632e-04
5.036968e-04
5.036319e-04
4.733917e-04
4.733948e-04
4.963165e-04
5.111479e-04
5.187365e-04
5.268553e-04
5.191065e-04
4.963964e-04
4.811333e-04
4.886470e-04
4.733941e-04
4.810656e-04
4.733933e-04
4.733966e-04
4.733932e-04
5.034806e-04
5.197525e-04
5.109998e-04
5.188862e-04
5.352898e-04
5.583899e-04
4.887981e-04
4.733970e-04
4.963244e-04
4.963260e-04
4.809166e-04
4.885805e-04
4.810630e-04
4.885844e-04
4.733954e-04
4.733919e-04
4.809170e-04
4.809244e-04
4.733947e-04
4.886618e-04
5.041375e-04
5.116769e-04
5.116499e-04
5.039121e-04
5.040679e-04
4.811299e-04
4.884309e-04
4.810637e-04
4.733943e-04
4.810613e-04
4.733956e-04
4.885806e-04
5.111479e-04
4.966051e-04
4.961747e-04
5.034762e-04
5.506183e-04
5.586171e-04
4.888701e-04
4.961086e-04
4.886478e-04
4.884328e-04
4.733953e-04
4.885836e-04
4.888032e-04
4.809170e-04
4.809120e-04
4.733941e-04
4.810642e-04
4.811358e-04
4.809230e-04
4.888773e-04
4.966092e-04
5.113704e-04
5.037012e-04
5.042942e-04
4.961063e-04
4.733982e-04
4.734028e-04
4.733907e-04
4.811325e-04
4.733917e-04
4.810570e-04
4.733925e-04
5.115848e-04
5.186691e-04
5.111485e-04
5.038405e-04
5.508721e-04
5.586103e-04
4.886491e-04
4.961044e-04
4.884361e-04
4.809141e-04
4.809130e-04
4.885839e-04
4.734001e-04
4.810604e-04
4.734017e-04
4.810626e-04
4.733963e-04
4.811325e-04
4.733940e-04
4.811394e-04
4.965587e-04
5.038488e-04
4.885851e-04
4.888057e-04
4.961069e-04
4.809127e-04
4.809155e-04
4.733958e-04
4.733953e-04
4.810631e-04
4.733988e-04
5.040585e-04
5.273680e-04
5.112205e-04
5.264054e-04
5.039154e-04
5.507842e-04
5.586214e-04
4.810606e-04
4.733931e-04
4.810654e-04
4.733944e-04
4.733969e-04
4.733951e-04
4.810601e-04
4.734072e-04
4.809139e-04
4.733994e-04
4.961069e-04
4.884352e-04
4.809146e-04
4.884345e-04
5.111478e-04
5.337125e-04
5.335479e-04
5.637831e-04
5.637818e-04
5.561058e-04
5.642207e-04
5.187264e-04
4.734008e-04
4.733994e-04
4.963210e-04
5.501441e-04
5.421127e-04
5.114247e-04
5.039102e-04
5.417435e-04
5.653637e-04
5.662879e-04
4.886522e-04
4.810682e-04
4.809120e-04
4.809171e-04
4.733978e-04
4.733933e-04
4.733947e-04
4.886632e-04
4.959592e-04
5.036975e-04
5.191059e-04
5.039267e-04
5.036235e-04
5.043539e-04
5.345812e-04
5.421786e-04
5.496220e-04
5.563294e-04
5.565386e-04
5.567626e-04
5.651102e-04
5.585864e-04
5.348999e-04
5.272705e-04
5.585841e-04
5.585769e-04
5.193886e-04
5.114329e-04
5.343712e-04
5.269125e-04
5.583717e-04
5.581532e-04
5.110040e-04
4.809089e-04
4.811309e-04
4.811426e-04
4.885787e-04
4.733953e-04
4.886494e-04
4.959619e-04
4.961660e-04
5.193153e-04
4.961712e-04
5.040577e-04
5.036297e-04
5.113645e-04
5.112133e-04
5.271384e-04
4.886522e-04
4.811340e-04
4.733937e-04
4.733979e-04
4.811353e-04
5.191836e-04
5.570062e-04
5.572095e-04
5.572054e-04
4.959595e-04
4.809231e-04
4.884374e-04
5.113578e-04
5.120206e-04
5.506382e-04
5.196350e-04
5.260391e-04
4.888022e-04
4.963215e-04
4.884340e-04
4.811306e-04
4.733942e-04
4.733921e-04
4.960992e-04
5.041494e-04
5.197729e-04
4.888707e-04
5.191099e-04
5.118703e-04
5.195630e-04
5.572506e-04
5.419541e-04
4.810655e-04
4.733910e-04
4.961762e-04
4.809228e-04
4.809194e-04
4.811291e-04
5.115911e-04
5.112224e-04
4.810566e-04
4.733943e-04
4.809176e-04
4.888027e-04
4.884333e-04
4.886553e-04
5.586081e-04
5.198625e-04
5.337771e-04
4.810582e-04
4.809116e-04
4.963210e-04
4.888707e-04
4.811292e-04
4.810609e-04
4.733942e-04
4.809226e-04
5.039178e-04
5.188894e-04
5.121080e-04
5.038429e-04
4.734023e-04
5.565526e-04
5.570200e-04
4.959537e-04
4.963310e-04
5.036231e-04
5.040701e-04
4.965352e-04
4.885868e-04
4.809196e-04
4.809155e-04
4.733982e-04
4.810628e-04
4.734006e-04
4.809130e-04
4.809182e-04
4.733958e-04
5.586263e-04
5.583842e-04
5.581581e-04
5.583954e-04
5.661189e-04
5.585965e-04
5.583709e-04
5.583856e-04
5.585989e-04
5.663450e-04
5.583902e-04
5.663253e-04
5.586018e-04
5.660301e-04
5.586038e-04
5.586185e-04
5.586114e-04
5.662788e-04
5.586002e-04
5.660519e-04
5.583766e-04
5.428948e-04
5.583738e-04
5.662737e-04
5.663467e-04
5.586140e-04
5.663443e-04
5.586046e-04
5.586094e-04
5.586139e-04
5.586028e-04
5.586067e-04
5.586225e-04
5.586072e-04
5.577076e-04
5.586232e-04
5.586161e-04
5.507771e-04
5.353613e-04
5.431111e-04
5.586040e-04
5.586092e-04
5.583800e-04
5.583781e-04
5.662834e-04
5.583805e-04
5.579066e-04
5.275416e-04
5.572465e-04
5.586088e-04
5.662777e-04
5.586046e-04
5.504037e-04
5.658222e-04
5.663487e-04
5.586134e-04
5.581553e-04
5.583695e-04
5.586035e-04
5.508548e-04
5.586051e-04
5.586077e-04
5.586054e-04
5.586079e-04
5.586111e-04
5.350660e-04
5.422011e-04
5.041374e-04
4.888736e-04
4.966280e-04
4.961780e-04
4.966192e-04
4.886532e-04
5.116659e-04
5.189503e-04
4.963893e-04
4.809130e-04
4.886532e-04
5.271245e-04
5.423253e-04
5.580701e-04
5.109896e-04
4.809171e-04
4.809187e-04
5.041427e-04
4.963296e-04
4.733962e-04
4.811325e-04
4.733989e-04
4.733945e-04
4.886497e-04
4.811354e-04
4.811332e-04
4.811384e-04
4.963246e-04
4.888007e-04
5.586129e-04
5.353651e-04
5.264807e-04
5.118829e-04
4.961717e-04
4.964012e-04
4.963948e-04
4.966224e-04
4.959518e-04
5.264084e-04
5.115869e-04
4.963219e-04
5.038448e-04
5.113613e-04
5.116475e-04
5.116498e-04
5.196156e-04
4.884300e-04
4.733924e-04
4.809256e-04
5.036171e-04
4.961703e-04
4.963256e-04
4.884399e-04
4.888720e-04
4.884393e-04
4.809122e-04
4.886598e-04
4.809226e-04
4.734023e-04
4.887996e-04
4.733937e-04
5.662849e-04
5.585294e-04
5.039054e-04
5.194079e-04
4.963928e-04
4.810658e-04
4.884435e-04
4.884318e-04
4.811324e-04
5.267021e-04
5.416832e-04
4.888871e-04
5.113646e-04
5.115825e-04
5.118035e-04
5.193279e-04
4.963958e-04
4.809171e-04
4.809159e-04
4.959582e-04
5.112217e-04
5.036938e-04
4.961046e-04
4.733980e-04
4.886567e-04
4.884350e-04
4.733976e-04
4.885775e-04
4.809140e-04
4.885833e-04
4.885859e-04
4.887993e-04
5.586122e-04
5.583728e-04
5.040691e-04
5.114371e-04
5.120152e-04
4.888681e-04
5.040598e-04
4.961026e-04
4.733890e-04
5.412383e-04
5.491985e-04
4.886593e-04
4.963153e-04
5.113621e-04
5.038359e-04
4.963892e-04
4.888732e-04
4.811310e-04
4.810604e-04
5.187329e-04
5.261843e-04
5.112139e-04
4.959567e-04
4.733957e-04
4.811312e-04
4.886542e-04
4.963969e-04
5.040704e-04
4.884283e-04
4.961040e-04
5.115817e-04
5.118078e-04
5.586101e-04
5.663441e-04
5.043579e-04
5.120253e-04
5.042883e-04
5.041284e-04
4.963893e-04
4.963863e-04
4.809144e-04
5.335594e-04
5.417402e-04
5.040675e-04
5.187335e-04
5.191687e-04
5.266847e-04
5.496887e-04
5.269095e-04
5.269170e-04
5.271268e-04
5.574163e-04
5.578530e-04
5.576351e-04
5.493930e-04
5.190949e-04
5.187259e-04
5.415058e-04
5.644438e-04
5.496847e-04
5.494091e-04
5.418912e-04
5.574349e-04
5.505920e-04
5.583706e-04
5.583858e-04
5.113575e-04
5.038444e-04
4.886575e-04
4.888861e-04
4.961738e-04
5.039179e-04
5.266177e-04
5.273402e-04
5.273353e-04
5.493966e-04
5.496267e-04
5.415159e-04
5.420999e-04
5.489564e-04
5.419463e-04
5.490317e-04
5.567581e-04
5.569833e-04
5.569127e-04
5.570038e-04
5.648807e-04
5.262402e-04
5.642219e-04
5.571933e-04
5.569731e-04
5.648674e-04
5.642092e-04
5.564726e-04
5.498996e-04
5.336990e-04
5.586134e-04
5.586141e-04
4.886548e-04
4.733932e-04
4.810594e-04
4.961830e-04
5.039196e-04
5.190965e-04
5.345889e-04
5.423196e-04
5.036851e-04
5.191687e-04
5.264105e-04
4.966073e-04
4.963980e-04
4.809108e-04
5.037019e-04
5.036161e-04