# vtk DataFile Version 3.0
Cu single-crystal phase-field data
ASCII
DATASET STRUCTURED_POINTS
DIMENSIONS 32 32 16
ORIGIN 0 0 0
SPACING 5.000000e-07 5.000000e-07 5.000000e-07
POINT_DATA 16384
SCALARS crack float 1
LOOKUP_TABLE default
4.719771e-04
4.719780e-04
4.719033e-04
4.642486e-04
4.642353e-04
4.642364e-04
4.642476e-04
4.642424e-04
4.642373e-04
4.642502e-04
4.719780e-04
4.719782e-04
4.642414e-04
4.642373e-04
4.719770e-04
4.642361e-04
4.640140e-04
4.642369e-04
4.642608e-04
4.642559e-04
4.719774e-04
4.719074e-04
4.719765e-04
4.719772e-04
4.719035e-04
4.719035e-04
4.719780e-04
4.719025e-04
4.642375e-04
4.642310e-04
4.642395e-04
4.642484e-04
4.719783e-04
4.716518e-04
4.487481e-04
4.562538e-04
4.562546e-04
4.564812e-04
4.560346e-04
4.564892e-04
4.637831e-04
4.710017e-04
4.631036e-04
4.479792e-04
4.630993e-04
4.719044e-04
4.719768e-04
4.719077e-04
4.637895e-04
4.642565e-04
4.565122e-04
4.642492e-04
4.564964e-04
4.642293e-04
4.719057e-04
4.714481e-04
4.487429e-04
4.717373e-04
4.717521e-04
4.716734e-04
4.640110e-04
4.716777e-04
4.719755e-04
4.642521e-04
4.642302e-04
4.642211e-04
4.560300e-04
4.487486e-04
4.561869e-04
4.560301e-04
4.409877e-04
4.637868e-04
4.642381e-04
4.719786e-04
4.719054e-04
4.640091e-04
4.642274e-04
4.639493e-04
4.486157e-04
4.487392e-04
4.639273e-04
4.642299e-04
4.642409e-04
4.719758e-04
4.562628e-04
4.642432e-04
4.642308e-04
4.640032e-04
4.641528e-04
4.717498e-04
4.715204e-04
4.640146e-04
4.642225e-04
4.719662e-04
4.719026e-04
4.719790e-04
4.642358e-04
4.642327e-04
4.641981e-04
4.719059e-04
4.719770e-04
4.719029e-04
4.642314e-04
4.642293e-04
4.642507e-04
4.718844e-04
4.719014e-04
4.642451e-04
4.641577e-04
4.642236e-04
4.640122e-04
4.716762e-04
4.719654e-04
4.716657e-04
4.640320e-04
4.714419e-04
4.562549e-04
4.640059e-04
4.642305e-04
4.562583e-04
4.719047e-04
4.719761e-04
4.719760e-04
4.718936e-04
4.642247e-04
4.719748e-04
4.642306e-04
4.719775e-04
4.640049e-04
4.642218e-04
4.642344e-04
4.716820e-04
4.716568e-04
4.642275e-04
4.719725e-04
4.642379e-04
4.719009e-04
4.715131e-04
4.719752e-04
4.642336e-04
4.719741e-04
4.719731e-04
4.642418e-04
4.642419e-04
4.716641e-04
4.719744e-04
4.716715e-04
4.564835e-04
4.716727e-04
4.642298e-04
4.642314e-04
4.640068e-04
4.642396e-04
4.719048e-04
4.642368e-04
4.719008e-04
4.718989e-04
4.716752e-04
4.642287e-04
4.719074e-04
4.640140e-04
4.642549e-04
4.719060e-04
4.719756e-04
4.717465e-04
4.564834e-04
4.718900e-04
4.642396e-04
4.642322e-04
4.716596e-04
4.718935e-04
4.640154e-04
4.719721e-04
4.719745e-04
4.716784e-04
4.642463e-04
4.642411e-04
4.642370e-04
4.639959e-04
4.714450e-04
4.635485e-04
4.642206e-04
4.642323e-04
4.642341e-04
4.642410e-04
4.642414e-04
4.641518e-04
4.719764e-04
4.719000e-04
4.640106e-04
4.642312e-04
4.716733e-04
4.642321e-04
4.640168e-04
4.642345e-04
4.719094e-04
4.637756e-04
4.639265e-04
4.642287e-04
4.719020e-04
4.642398e-04
4.642373e-04
4.719777e-04
4.642465e-04
4.642288e-04
4.718951e-04
4.719776e-04
4.635725e-04
4.480696e-04
4.628646e-04
4.630190e-04
4.635468e-04
4.480610e-04
4.637459e-04
4.642272e-04
4.719665e-04
4.641905e-04
4.639854e-04
4.642249e-04
4.716715e-04
4.640162e-04
4.642333e-04
4.719050e-04
4.719778e-04
4.642388e-04
4.642329e-04
4.642276e-04
4.642303e-04
4.640049e-04
4.714524e-04
4.712965e-04
4.712959e-04
4.635607e-04
4.626524e-04
4.635695e-04
4.719787e-04
4.642356e-04
4.642503e-04
4.642331e-04
4.564773e-04
4.716793e-04
4.639180e-04
4.719758e-04
4.639298e-04
4.562654e-04
4.410094e-04
4.637869e-04
4.719779e-04
4.642304e-04
4.719049e-04
4.642328e-04
4.640062e-04
4.637801e-04
4.564886e-04
4.564806e-04
4.719082e-04
4.642348e-04
4.642422e-04
4.642372e-04
4.642399e-04
4.642184e-04
4.640245e-04
4.718995e-04
4.642209e-04
4.642254e-04
4.719770e-04
4.642418e-04
4.642324e-04
4.719771e-04
4.642349e-04
4.719741e-04
4.719739e-04
4.719731e-04
4.716777e-04
4.718989e-04
4.642418e-04
4.642377e-04
4.642358e-04
4.640042e-04
4.642305e-04
4.719742e-04
4.719752e-04
4.719045e-04
4.642393e-04
4.642327e-04
4.642408e-04
4.642339e-04
4.719069e-04
4.642293e-04
4.642324e-04
4.642264e-04
4.642320e-04
4.717478e-04
4.640042e-04
4.719757e-04
4.642383e-04
4.719006e-04
4.642418e-04
4.719675e-04
4.642301e-04
4.639963e-04
4.642369e-04
4.642277e-04
4.642329e-04
4.719036e-04
4.719094e-04
4.642261e-04
4.719039e-04
4.640106e-04
4.642345e-04
4.641574e-04
4.642225e-04
4.642403e-04
4.719076e-04
4.718909e-04
4.640161e-04
4.564933e-04
4.640054e-04
4.719032e-04
4.719784e-04
4.642368e-04
4.642307e-04
4.642356e-04
4.642377e-04
4.642247e-04
4.642273e-04
4.642377e-04
4.719030e-04
4.719769e-04
4.719032e-04
4.640139e-04
4.716766e-04
4.640089e-04
4.642336e-04
4.642407e-04
4.642438e-04
4.719071e-04
4.719740e-04
4.642366e-04
4.719730e-04
4.718968e-04
4.719056e-04
4.719751e-04
4.716745e-04
4.642350e-04
4.719017e-04
4.719762e-04
4.564066e-04
4.562574e-04
4.564832e-04
4.640075e-04
4.716784e-04
4.642456e-04
4.564901e-04
4.642343e-04
4.719051e-04
4.642364e-04
4.637821e-04
4.637599e-04
4.642435e-04
4.719027e-04
4.642401e-04
4.716748e-04
4.715230e-04
4.716720e-04
4.642436e-04
4.642421e-04
4.642254e-04
4.642350e-04
4.719044e-04
4.642447e-04
4.718966e-04
4.642382e-04
4.642295e-04
4.714519e-04
4.642206e-04
4.642295e-04
4.642314e-04
4.718942e-04
4.562627e-04
4.562277e-04
4.562445e-04
4.717501e-04
4.640183e-04
4.642469e-04
4.642236e-04
4.719008e-04
4.719749e-04
4.719744e-04
4.642404e-04
4.639984e-04
4.719695e-04
4.716778e-04
4.639969e-04
4.642357e-04
4.716691e-04
4.642348e-04
4.642598e-04
4.719004e-04
4.642326e-04
4.564834e-04
4.642352e-04
4.642493e-04
4.564797e-04
4.719088e-04
4.642479e-04
4.719756e-04
4.642309e-04
4.642363e-04
4.564854e-04
4.562646e-04
4.482877e-04
4.555016e-04
4.560443e-04
4.564892e-04
4.640094e-04
4.642344e-04
4.640071e-04
4.637821e-04
4.719060e-04
4.642264e-04
4.640066e-04
4.717508e-04
4.719769e-04
4.562551e-04
4.561810e-04
4.487311e-04
4.630821e-04
4.642469e-04
4.719722e-04
4.719752e-04
4.719016e-04
4.642382e-04
4.564924e-04
4.640243e-04
4.719078e-04
4.719743e-04
4.642454e-04
4.719761e-04
4.719046e-04
4.642320e-04
4.564894e-04
4.487451e-04
4.484375e-04
4.555710e-04
4.637075e-04
4.642307e-04
4.642402e-04
4.642357e-04
4.637596e-04
4.409980e-04
4.487396e-04
4.642344e-04
4.562554e-04
4.637635e-04
4.719078e-04
4.487392e-04
4.564883e-04
4.717481e-04
4.560308e-04
4.718597e-04
4.719761e-04
4.719731e-04
4.642108e-04
4.642234e-04
4.642209e-04
4.642355e-04
4.642181e-04
4.716773e-04
4.640113e-04
4.719019e-04
4.564853e-04
4.640033e-04
4.642257e-04
4.639305e-04
4.564809e-04
4.554999e-04
4.560266e-04
4.564868e-04
4.642428e-04
4.642381e-04
4.332633e-04
4.409900e-04
4.409980e-04
4.485261e-04
4.487437e-04
4.558042e-04
4.719086e-04
4.560305e-04
4.714499e-04
4.719762e-04
4.642281e-04
4.642401e-04
4.715227e-04
4.637859e-04
4.642269e-04
4.642337e-04
4.642435e-04
4.719024e-04
4.642353e-04
4.710673e-04
4.641952e-04
4.642350e-04
4.642424e-04
4.564891e-04
4.642229e-04
4.719774e-04
4.639305e-04
4.409851e-04
4.637561e-04
4.640150e-04
4.642384e-04
4.719102e-04
4.642524e-04
4.642529e-04
4.487384e-04
4.564063e-04
4.562704e-04
4.564831e-04
4.642397e-04
4.719795e-04
4.642058e-04
4.642351e-04
4.642360e-04
4.642421e-04
4.562639e-04
4.564835e-04
4.640067e-04
4.642508e-04
4.719725e-04
4.719753e-04
4.719031e-04
4.177522e-04
4.624207e-04
4.719747e-04
4.642313e-04
4.719013e-04
4.719748e-04
4.719726e-04
4.642411e-04
4.564903e-04
4.642349e-04
4.635539e-04
4.642545e-04
4.719828e-04
4.719054e-04
4.642362e-04
4.716793e-04
4.564888e-04
4.641571e-04
4.642389e-04
4.642372e-04
4.642334e-04
4.642382e-04
4.642206e-04
4.642454e-04
4.642424e-04
4.485158e-04
4.564745e-04
4.717503e-04
4.719740e-04
4.719782e-04
4.719748e-04
4.177514e-04
4.022623e-04
4.626461e-04
4.642370e-04
4.642341e-04
4.564895e-04
4.641573e-04
4.642332e-04
4.642505e-04
4.642348e-04
4.719111e-04
4.487395e-04
4.642613e-04
4.719060e-04
4.642287e-04
4.719744e-04
4.719764e-04
4.716765e-04
4.642376e-04
4.719067e-04
4.642340e-04
4.642348e-04
4.564881e-04
4.637884e-04
4.719781e-04
4.642408e-04
4.485158e-04
4.642424e-04
4.719781e-04
4.719797e-04
4.719774e-04
4.252730e-04
4.020306e-04
4.022617e-04
4.624208e-04
4.642344e-04
4.642444e-04
4.642419e-04
4.642444e-04
4.719745e-04
4.642410e-04
4.719032e-04
4.719776e-04
4.639309e-04
4.642339e-04
4.642370e-04
4.642310e-04
4.716762e-04
4.642271e-04
4.716769e-04
4.719040e-04
4.719751e-04
4.719049e-04
4.642298e-04
4.642385e-04
4.642210e-04
4.642416e-04
4.640163e-04
4.560591e-04
4.482727e-04
4.642358e-04
4.641596e-04
4.640031e-04
4.177571e-04
4.020371e-04
4.020316e-04
4.095505e-04
4.639503e-04
4.642358e-04
4.642475e-04
4.642412e-04
4.642310e-04
4.642402e-04
4.642384e-04
4.719089e-04
4.637785e-04
4.642328e-04
4.642453e-04
4.642343e-04
4.642512e-04
4.641561e-04
4.719054e-04
4.642337e-04
4.719753e-04
4.642588e-04
4.719770e-04
4.642335e-04
4.642453e-04
4.719788e-04
4.642409e-04
4.635539e-04
4.710418e-04
4.640092e-04
4.640074e-04
4.487532e-04
4.020410e-04
4.020361e-04
4.095587e-04
4.175146e-04
4.562169e-04
4.640144e-04
4.642387e-04
4.642364e-04
4.642365e-04
4.564874e-04
4.410036e-04
4.560320e-04
4.564871e-04
4.642419e-04
4.642387e-04
4.642382e-04
4.564888e-04
4.564081e-04
4.719768e-04
4.719042e-04
4.642384e-04
4.642364e-04
4.642284e-04
4.640188e-04
4.642506e-04
4.642311e-04
4.642215e-04
4.719058e-04
4.718721e-04
4.482639e-04
4.487220e-04
4.172941e-04
4.479744e-04
4.476116e-04
4.628667e-04
4.564445e-04
4.642111e-04
4.642379e-04
4.642402e-04
4.642471e-04
4.642420e-04
4.564891e-04
4.407779e-04
4.482937e-04
4.642336e-04
4.719809e-04
4.642407e-04
4.640118e-04
4.639929e-04
4.564951e-04
4.719064e-04
4.642481e-04
4.642434e-04
4.642331e-04
4.719759e-04
4.642361e-04
4.640071e-04
4.642500e-04
4.719086e-04
4.719790e-04
4.715254e-04
4.559446e-04
4.330204e-04
4.331559e-04
4.639939e-04
4.717408e-04
4.640094e-04
4.562589e-04
4.642345e-04
4.642354e-04
4.642338e-04
4.642359e-04
4.642397e-04
4.642347e-04
4.407617e-04
4.407691e-04
4.487363e-04
4.642493e-04
4.642335e-04
4.642315e-04
4.719753e-04
4.640108e-04
4.642313e-04
4.642386e-04
4.642420e-04
4.564854e-04
4.642299e-04
4.564853e-04
4.642274e-04
4.642413e-04
4.642318e-04
4.719063e-04
4.716717e-04
4.485026e-04
4.641398e-04
4.564838e-04
4.719643e-04
4.719685e-04
4.716805e-04
4.640028e-04
4.642407e-04
4.719760e-04
4.642381e-04
4.642380e-04
4.642325e-04
4.716792e-04
4.562541e-04
4.564730e-04
4.716792e-04
4.642384e-04
4.642364e-04
4.642307e-04
4.642204e-04
4.562669e-04
4.642344e-04
4.642301e-04
4.642332e-04
4.642289e-04
4.642303e-04
4.642286e-04
4.642360e-04
4.642448e-04
4.640261e-04
4.642376e-04
4.642231e-04
4.718895e-04
4.719654e-04
4.718887e-04
4.718958e-04
4.719036e-04
4.642494e-04
4.642329e-04
4.719023e-04
4.719751e-04
4.718984e-04
4.642310e-04
4.719019e-04
4.719762e-04
4.716485e-04
4.718984e-04
4.719770e-04
4.719779e-04
4.640117e-04
4.642236e-04
4.642327e-04
4.642329e-04
4.642285e-04
4.642333e-04
4.642286e-04
4.719738e-04
4.642372e-04
4.642329e-04
4.642332e-04
4.719746e-04
4.642320e-04
4.642493e-04
4.642395e-04
4.718921e-04
4.716754e-04
4.716675e-04
4.637811e-04
4.641543e-04
4.642384e-04
4.640077e-04
4.642330e-04
4.719012e-04
4.642381e-04
4.719743e-04
4.719074e-04
4.640169e-04
4.642287e-04
4.642437e-04
4.719003e-04
4.719790e-04
4.642366e-04
4.642309e-04
4.719734e-04
4.642320e-04
4.642290e-04
4.642309e-04
4.642293e-04
4.642344e-04
4.642392e-04
4.642433e-04
4.642361e-04
4.642334e-04
4.642389e-04
4.642325e-04
4.719043e-04
4.719776e-04
4.641536e-04
4.637900e-04
4.716834e-04
4.642350e-04
4.642373e-04
4.714497e-04
4.642233e-04
4.642368e-04
4.642469e-04
4.718975e-04
4.719658e-04
4.719644e-04
4.716732e-04
4.719657e-04
4.719760e-04
4.719763e-04
4.714520e-04
4.642278e-04
4.642407e-04
4.642335e-04
4.642442e-04
4.719030e-04
4.642364e-04
4.642290e-04
4.642320e-04
4.642325e-04
4.642378e-04
4.642371e-04
4.642445e-04
4.642233e-04
4.640033e-04
4.718943e-04
4.719675e-04
4.642328e-04
4.719021e-04
4.642276e-04
4.719036e-04
4.719754e-04
4.716386e-04
4.712151e-04
4.635570e-04
4.632841e-04
4.719729e-04
4.719747e-04
4.719070e-04
4.642307e-04
4.642250e-04
4.719031e-04
4.717485e-04
4.719062e-04
4.642447e-04
4.640005e-04
4.641533e-04
4.719733e-04
4.718994e-04
4.642316e-04
4.642310e-04
4.642326e-04
4.642310e-04
4.642291e-04
4.642305e-04
4.642268e-04
4.640057e-04
4.642380e-04
4.642360e-04
4.718989e-04
4.719758e-04
4.719037e-04
4.642347e-04
4.718991e-04
4.719050e-04
4.719672e-04
4.719060e-04
4.642384e-04
4.642410e-04
4.719069e-04
4.716784e-04
4.718878e-04
4.719745e-04
4.719761e-04
4.716784e-04
4.642399e-04
4.642297e-04
4.642271e-04
4.642204e-04
4.718988e-04
4.642351e-04
4.642263e-04
4.642384e-04
4.642326e-04
4.718923e-04
4.642279e-04
4.719669e-04
4.719754e-04
4.642336e-04
4.637538e-04
4.642169e-04
4.642284e-04
4.719757e-04
4.642322e-04
4.640147e-04
4.718991e-04
4.642546e-04
4.714506e-04
4.558033e-04
4.642351e-04
4.642477e-04
4.716801e-04
4.642265e-04
4.719032e-04
4.719047e-04
4.642426e-04
4.640136e-04
4.637773e-04
4.640081e-04
4.642272e-04
4.564905e-04
4.642243e-04
4.642452e-04
4.642324e-04
4.719731e-04
4.642534e-04
4.719748e-04
4.717470e-04
4.719653e-04
4.716746e-04
4.642368e-04
4.642422e-04
4.718970e-04
4.642328e-04
4.642354e-04
4.642287e-04
4.639212e-04
4.719659e-04
4.641500e-04
4.637712e-04
4.642149e-04
4.719774e-04
4.642336e-04
4.642306e-04
4.716718e-04
4.640085e-04
4.642467e-04
4.642514e-04
4.642553e-04
4.642361e-04
4.642399e-04
4.640100e-04
4.642358e-04
4.642384e-04
4.642334e-04
4.642322e-04
4.642366e-04
4.642380e-04
4.642400e-04
4.719040e-04
4.719763e-04
4.719062e-04
4.642408e-04
4.719052e-04
4.719767e-04
4.641557e-04
4.642356e-04
4.642329e-04
4.642384e-04
4.719759e-04
4.642533e-04
4.642537e-04
4.642403e-04
4.642380e-04
4.642363e-04
4.642433e-04
4.642592e-04
4.642419e-04
4.642432e-04
4.642381e-04
4.719788e-04
4.709994e-04
4.562634e-04
4.564912e-04
4.485145e-04
4.409956e-04
4.409977e-04
4.564835e-04
4.637833e-04
4.642282e-04
4.719677e-04
4.717499e-04
4.718980e-04
4.719103e-04
4.719770e-04
4.719115e-04
4.642231e-04
4.642481e-04
4.642572e-04
4.714479e-04
4.717514e-04
4.716764e-04
4.719081e-04
4.639303e-04
4.640047e-04
4.642459e-04
4.719029e-04
4.642359e-04
4.642389e-04
4.642353e-04
4.719765e-04
4.642526e-04
4.332467e-04
4.711841e-04
4.248136e-04
4.095500e-04
4.175082e-04
4.172919e-04
4.177405e-04
4.170779e-04
4.250299e-04
4.480437e-04
4.552779e-04
4.626291e-04
4.484730e-04
4.482908e-04
4.635022e-04
4.642031e-04
4.626450e-04
3.945218e-04
3.945157e-04
4.174297e-04
4.176574e-04
4.099203e-04
3.945121e-04
4.097708e-04
4.097701e-04
4.097735e-04
4.021797e-04
4.020415e-04
4.020361e-04
4.021803e-04
3.945159e-04
4.719832e-04
4.486695e-04
4.478123e-04
4.325592e-04
4.097685e-04
4.177286e-04
4.177281e-04
4.177235e-04
4.020366e-04
4.473071e-04
4.327670e-04
4.327657e-04
4.170732e-04
4.325484e-04
4.637201e-04
4.713991e-04
4.628536e-04
4.097742e-04
4.020438e-04
4.021703e-04
3.945144e-04
4.174419e-04
4.022532e-04
4.020356e-04
4.095567e-04
4.020326e-04
4.172231e-04
4.172237e-04
4.020294e-04
4.020317e-04
4.097010e-04
4.022506e-04
4.719841e-04
4.564839e-04
4.323290e-04
4.482524e-04
4.250344e-04
4.097081e-04
4.170760e-04
4.247462e-04
4.095530e-04
4.629976e-04
4.709649e-04
4.097790e-04
4.095543e-04
4.249628e-04
4.170678e-04
4.245965e-04
4.097676e-04
4.174370e-04
4.099180e-04
4.020499e-04
4.095533e-04
4.095522e-04
4.020313e-04
4.020288e-04
4.095523e-04
4.095567e-04
4.097736e-04
3.945142e-04
4.021771e-04
4.099149e-04
4.020324e-04
3.945115e-04
4.719848e-04
4.640042e-04
4.175271e-04
4.097719e-04
4.321128e-04
4.330074e-04
4.254163e-04
3.945085e-04
4.021854e-04
4.622013e-04
4.707568e-04
4.020373e-04
4.020303e-04
4.020338e-04
4.020337e-04
4.020334e-04
4.020392e-04
4.099224e-04
3.945101e-04
4.020385e-04
4.097012e-04
4.097028e-04
3.945144e-04
3.945136e-04
4.020334e-04
4.020329e-04
4.095506e-04
4.174396e-04
4.022487e-04
4.020352e-04
4.099290e-04
4.020306e-04
4.642423e-04
4.642304e-04
4.402171e-04
4.325524e-04
4.252445e-04
4.020322e-04
4.254084e-04
4.251945e-04
3.945081e-04
4.396341e-04
4.641875e-04
4.703009e-04
4.624097e-04
4.624068e-04
4.703042e-04
4.698688e-04
4.398463e-04
4.245931e-04
4.247383e-04
4.245933e-04
4.396444e-04
4.398509e-04
4.245946e-04
4.170721e-04
4.172231e-04
4.321091e-04
4.624103e-04
4.698669e-04
4.399965e-04
4.323250e-04
4.624130e-04
4.628563e-04
4.639960e-04
4.640163e-04
4.323281e-04
4.245895e-04
4.175137e-04
4.251833e-04
4.095482e-04
4.327033e-04
4.400044e-04
4.170682e-04
4.627814e-04
4.553295e-04
4.708014e-04
4.705142e-04
4.702959e-04
4.553215e-04
4.709567e-04
4.630684e-04
4.628418e-04
4.711708e-04
4.551040e-04
4.632114e-04
4.632741e-04
4.552560e-04
4.703015e-04
4.714055e-04
4.626266e-04
4.628446e-04
4.400754e-04
4.703037e-04
4.707351e-04
4.471482e-04
4.719080e-04
4.642408e-04
4.020315e-04
4.021808e-04
4.022472e-04
4.095540e-04
4.254594e-04
4.407333e-04
4.561625e-04
4.639012e-04
4.716031e-04
4.639806e-04
4.329976e-04
4.248143e-04
4.095528e-04
4.170745e-04
4.329273e-04
4.170684e-04
4.402880e-04
4.479531e-04
4.402405e-04
4.402816e-04
4.479606e-04
4.557259e-04
4.552614e-04
4.398536e-04
4.170691e-04
4.177266e-04
4.329955e-04
4.329933e-04
4.172281e-04
4.095517e-04
4.642421e-04
4.642448e-04
4.097104e-04
4.020307e-04
4.099852e-04
4.329201e-04
4.248139e-04
4.327019e-04
4.406524e-04
4.477464e-04
4.095526e-04
4.555456e-04
4.635190e-04
4.400030e-04
4.020414e-04
4.172241e-04
4.251791e-04
4.096980e-04
4.177367e-04
4.095495e-04
4.095483e-04
4.095508e-04
4.170728e-04
4.172911e-04
4.022508e-04
3.945124e-04
4.022519e-04
4.020337e-04
4.020399e-04
4.170695e-04
4.095498e-04
4.248218e-04
4.637979e-04
4.640090e-04
4.095555e-04
4.095519e-04
4.251806e-04
4.095512e-04
4.097837e-04
4.248171e-04
4.324825e-04
4.022503e-04
4.099880e-04
4.250279e-04
4.632232e-04
4.397923e-04
4.020307e-04
4.096992e-04
4.176719e-04
4.172950e-04
4.099949e-04
4.020394e-04
4.022472e-04
4.097682e-04
4.176594e-04
4.175134e-04
4.172893e-04
4.097096e-04
4.022530e-04
4.250426e-04
4.327747e-04
4.248184e-04
4.325552e-04
4.323278e-04
4.716834e-04
4.642442e-04
3.945119e-04
4.022563e-04
4.099887e-04
4.251806e-04
4.099976e-04
4.402201e-04
4.321220e-04
4.099114e-04
4.172906e-04
4.707396e-04
4.559975e-04
4.323375e-04
3.945145e-04
3.945175e-04
4.097040e-04
4.095569e-04
4.021819e-04
3.945170e-04
4.021783e-04
4.097692e-04
4.099872e-04
4.254007e-04
4.097698e-04
4.020327e-04
4.097743e-04
4.327059e-04
4.406508e-04
4.325450e-04
4.252417e-04
4.174382e-04
4.640230e-04
4.642253e-04
4.175138e-04
4.020325e-04
4.022534e-04
4.176577e-04
4.252709e-04
4.551110e-04
4.399978e-04
4.097712e-04
4.628494e-04
4.632932e-04
4.634298e-04
4.250377e-04
4.020330e-04
3.945130e-04
3.945129e-04
4.020324e-04
3.945142e-04
3.945129e-04
4.020382e-04
4.021804e-04
4.097726e-04
4.174455e-04
4.020336e-04
3.945100e-04
4.095527e-04
4.248135e-04
4.254665e-04
4.402979e-04
4.402254e-04
4.097774e-04
4.717549e-04
4.562757e-04
4.252651e-04
4.099866e-04
4.022509e-04
3.945150e-04
4.249615e-04
4.630700e-04
4.400699e-04
4.713966e-04
4.711714e-04
4.641741e-04
4.637411e-04
4.323388e-04
3.945229e-04
3.945121e-04
4.020293e-04
4.020360e-04
4.022514e-04
4.022618e-04
4.020388e-04
4.020386e-04
4.021851e-04
3.945149e-04
4.021865e-04
4.020312e-04
4.097740e-04
4.170745e-04
4.329880e-04
4.478177e-04
4.248199e-04
4.022593e-04
4.640165e-04
4.562706e-04
4.251799e-04
4.177470e-04
4.099852e-04
4.097750e-04
4.251795e-04
4.551078e-04
4.476013e-04
4.711936e-04
4.478032e-04
4.713856e-04
4.641893e-04
4.095563e-04
3.945127e-04
4.021814e-04
3.945186e-04
4.398514e-04
4.626453e-04
4.626241e-04
4.095514e-04
4.097047e-04
4.020334e-04
4.021828e-04
3.945082e-04
4.022486e-04
4.174354e-04
4.172920e-04
4.481852e-04
4.554803e-04
4.324793e-04
4.095517e-04
4.719823e-04
4.639390e-04
4.398660e-04
4.250353e-04
4.177545e-04
4.170722e-04
4.252588e-04
4.627849e-04
4.473639e-04
4.711767e-04
4.703150e-04
4.703003e-04
4.563797e-04
4.405397e-04
4.172902e-04
4.095537e-04
4.557830e-04
4.641769e-04
4.630607e-04
4.561935e-04
4.639396e-04
4.400036e-04
4.248163e-04
4.020261e-04
4.099197e-04
4.099177e-04
4.095539e-04
4.175112e-04
4.327872e-04
4.557856e-04
4.325525e-04
4.174362e-04
4.642469e-04
4.642387e-04
4.329948e-04
4.254632e-04
4.245908e-04
4.175066e-04
4.247431e-04
4.628520e-04
4.709585e-04
4.473710e-04
4.245884e-04
4.322614e-04
4.404333e-04
4.714081e-04
4.405134e-04
4.709628e-04
4.634958e-04
4.248117e-04
4.021777e-04
3.945152e-04
4.556890e-04
4.482355e-04
4.705202e-04
4.322645e-04
4.020300e-04
4.022552e-04
4.099256e-04
4.174380e-04
4.330125e-04
4.407481e-04
4.563658e-04
4.250304e-04
4.719016e-04
4.718998e-04
4.252615e-04
4.177493e-04
4.177374e-04
4.249661e-04
4.173017e-04
4.250409e-04
4.703043e-04
4.702939e-04
4.718647e-04
4.548264e-04
3.945080e-04
4.479536e-04
4.705124e-04
4.632969e-04
4.397834e-04
4.020344e-04
3.945119e-04
4.021823e-04
4.637606e-04
4.718677e-04
4.707455e-04
3.945104e-04
4.021804e-04
3.945147e-04
4.021815e-04
3.945102e-04
4.097743e-04
4.322656e-04
4.325507e-04
4.400739e-04
4.716615e-04
4.719076e-04
4.095598e-04
4.174451e-04
4.177285e-04
4.172216e-04
4.174526e-04
4.022529e-04
3.945115e-04
4.021783e-04
4.628502e-04
4.626313e-04
4.021846e-04
4.396362e-04
4.628436e-04
4.709797e-04
4.324950e-04
4.097029e-04
4.021848e-04
4.562258e-04
4.642208e-04
4.630823e-04
4.700851e-04
4.174385e-04
4.022537e-04
4.022495e-04
4.099219e-04
4.097012e-04
3.945111e-04
4.097011e-04
4.095591e-04
4.172901e-04
4.487736e-04
4.642481e-04
4.172249e-04
4.175117e-04
4.174406e-04
4.097730e-04
4.022545e-04
3.945135e-04
3.945133e-04
4.020359e-04
4.621996e-04
4.700866e-04
3.945175e-04
4.322630e-04
4.548963e-04
4.627782e-04
4.097034e-04
4.097738e-04
4.484067e-04
4.639913e-04
4.632917e-04
4.624106e-04
4.624171e-04
4.020327e-04
3.945100e-04
4.022509e-04
4.099225e-04
3.945128e-04
4.097020e-04
3.945098e-04
4.172282e-04
4.172917e-04
4.562719e-04
4.642416e-04
4.095536e-04
4.249588e-04
4.175124e-04
4.097689e-04
4.020320e-04
4.022512e-04
3.945194e-04
4.022506e-04
4.624129e-04
4.624161e-04
3.945157e-04
4.471585e-04
4.635114e-04
4.718844e-04
4.475229e-04
4.174446e-04
4.484787e-04
4.639594e-04
4.626269e-04
4.621953e-04
4.624165e-04
4.471527e-04
3.945131e-04
3.945157e-04
3.945081e-04
4.022519e-04
4.020321e-04
4.170809e-04
4.254975e-04
4.175041e-04
4.409946e-04
4.642362e-04
4.170772e-04
4.175186e-04
4.095526e-04
4.097674e-04
4.021774e-04
3.945130e-04
4.020304e-04
4.021787e-04
4.705230e-04
4.709615e-04
4.396296e-04
4.716046e-04
4.705336e-04
4.486964e-04
4.718204e-04
4.396356e-04
4.716585e-04
4.641742e-04
4.700822e-04
4.621927e-04
4.624085e-04
4.396372e-04
4.020318e-04
3.945115e-04
3.945186e-04
4.020297e-04
4.177347e-04
4.330220e-04
4.332143e-04
4.400828e-04
4.559556e-04
4.642397e-04
4.097787e-04
4.175305e-04
4.097707e-04
4.174462e-04
4.020391e-04
4.021782e-04
4.020342e-04
3.945150e-04
4.248108e-04
4.630692e-04
4.707624e-04
4.628670e-04
4.020296e-04
4.247445e-04
4.635195e-04
4.559738e-04
4.637368e-04
4.626439e-04
4.551175e-04
4.471531e-04
4.396349e-04
4.097681e-04
3.945063e-04
3.945126e-04
3.945114e-04
4.020381e-04
4.250398e-04
4.329965e-04
4.325554e-04
4.400048e-04
4.332463e-04
4.640104e-04
4.100020e-04
4.174493e-04
4.097734e-04
4.095560e-04
3.945084e-04
3.945188e-04
4.021811e-04
3.945134e-04
4.021814e-04
4.248148e-04
4.247502e-04
3.945092e-04
3.945124e-04
4.174348e-04
4.322664e-04
4.398549e-04
4.479732e-04
4.402241e-04
4.175150e-04
4.022514e-04
4.097658e-04
3.945116e-04
4.021837e-04
3.945108e-04
3.945142e-04
3.945108e-04
4.245983e-04
4.408701e-04
4.321169e-04
4.400046e-04
4.409150e-04
4.640139e-04
4.099169e-04
3.945146e-04
4.174429e-04
4.174444e-04
4.020348e-04
4.096986e-04
4.021811e-04
4.097026e-04
3.945129e-04
3.945095e-04
4.020348e-04
4.020422e-04
3.945123e-04
4.097802e-04
4.252556e-04
4.327948e-04
4.327678e-04
4.250301e-04
4.251860e-04
4.022480e-04
4.095496e-04
4.021819e-04
3.945119e-04
4.021795e-04
3.945131e-04
4.096983e-04
4.322651e-04
4.177234e-04
4.172929e-04
4.245945e-04
4.562429e-04
4.642414e-04
4.099887e-04
4.172269e-04
4.097664e-04
4.095516e-04
3.945129e-04
4.097018e-04
4.099210e-04
4.020351e-04
4.020302e-04
3.945116e-04
4.021822e-04
4.022539e-04
4.020412e-04
4.099959e-04
4.177276e-04
4.324876e-04
4.248189e-04
4.254109e-04
4.172238e-04
3.945157e-04
3.945204e-04
3.945082e-04
4.022507e-04
3.945092e-04
4.021752e-04
3.945101e-04
4.327023e-04
4.397866e-04
4.322669e-04
4.249591e-04
4.564965e-04
4.642349e-04
4.097679e-04
4.172229e-04
4.095546e-04
4.020322e-04
4.020312e-04
4.097020e-04
3.945177e-04
4.021786e-04
3.945193e-04
4.021808e-04
3.945138e-04
4.022507e-04
3.945115e-04
4.022576e-04
4.176757e-04
4.249658e-04
4.097029e-04
4.099235e-04
4.172241e-04
4.020307e-04
4.020330e-04
3.945134e-04
3.945128e-04
4.021812e-04
3.945164e-04
4.251760e-04
4.484853e-04
4.323391e-04
4.475241e-04
4.250351e-04
4.564095e-04
4.642468e-04
4.021787e-04
3.945107e-04
4.021834e-04
3.945120e-04
3.945145e-04
3.945127e-04
4.021780e-04
3.945248e-04
4.020320e-04
3.945169e-04
4.172249e-04
4.095533e-04
4.020328e-04
4.095531e-04
4.322660e-04
4.548306e-04
4.471490e-04
4.698643e-04
4.698637e-04
4.621880e-04
4.703019e-04
4.248085e-04
3.945183e-04
3.945170e-04
4.174391e-04
4.712623e-04
4.557115e-04
4.250257e-04
4.250301e-04
4.628626e-04
4.709880e-04
4.719136e-04
4.097706e-04
4.021863e-04
4.020299e-04
4.020352e-04
3.945153e-04
3.945109e-04
3.945122e-04
4.097817e-04
4.170778e-04
4.248160e-04
4.402246e-04
4.250454e-04
4.247425e-04
4.254727e-04
4.557001e-04
4.557792e-04
4.552530e-04
4.621953e-04
4.626221e-04
4.628464e-04
4.711930e-04
4.642166e-04
4.405311e-04
4.329185e-04
4.642309e-04
4.642141e-04
4.250271e-04
4.170707e-04
4.402272e-04
4.329953e-04
4.639971e-04
4.637779e-04
4.321225e-04
4.020270e-04
4.022490e-04
4.022604e-04
4.096969e-04
3.945128e-04
4.097681e-04
4.170808e-04
4.172852e-04
4.404342e-04
4.172901e-04
4.251773e-04
4.247476e-04
4.324832e-04
4.323305e-04
4.327741e-04
3.945141e-04
4.022518e-04
3.945112e-04
3.945155e-04
4.022528e-04
4.403020e-04
4.630863e-04
4.632891e-04
4.632860e-04
4.020394e-04
3.945215e-04
4.020365e-04
4.174382e-04
4.176573e-04
4.642361e-04
4.252609e-04
4.471582e-04
4.099199e-04
4.174401e-04
4.095524e-04
4.022488e-04
3.945118e-04
3.945097e-04
4.172177e-04
4.252680e-04
4.408920e-04
4.099895e-04
4.402293e-04
4.329888e-04
4.406820e-04
4.633302e-04
4.475900e-04
4.021836e-04
3.945086e-04
4.172944e-04
4.020407e-04
4.020376e-04
4.022470e-04
4.327085e-04
4.323397e-04
4.021748e-04
3.945119e-04
4.020358e-04
4.099205e-04
4.095520e-04
4.022543e-04
4.642432e-04
4.254874e-04
4.548958e-04
4.021763e-04
4.020297e-04
4.174395e-04
4.099894e-04
4.022474e-04
4.021790e-04
3.945117e-04
4.020407e-04
4.250358e-04
4.400075e-04
4.332258e-04
4.249616e-04
3.945198e-04
4.626325e-04
4.630990e-04
4.170730e-04
4.174496e-04
4.247418e-04
4.251883e-04
4.176539e-04
4.097048e-04
4.020376e-04
4.020335e-04
3.945158e-04
4.021807e-04
3.945182e-04
4.020309e-04
4.020361e-04
3.945134e-04
4.642515e-04
4.640138e-04
4.637873e-04
4.640252e-04
4.717492e-04
4.642271e-04
4.640025e-04
4.640170e-04
4.642305e-04
4.719757e-04
4.640209e-04
4.719560e-04
4.642324e-04
4.716603e-04
4.642338e-04
4.642486e-04
4.642406e-04
4.719076e-04
4.642302e-04
4.716816e-04
4.640065e-04
4.485253e-04
4.640039e-04
4.719031e-04
4.719766e-04
4.642439e-04
4.719747e-04
4.642350e-04
4.642400e-04
4.642442e-04
4.642330e-04
4.642370e-04
4.642511e-04
4.642356e-04
4.633359e-04
4.642523e-04
4.642455e-04
4.564071e-04
4.409911e-04
4.487416e-04
4.642343e-04
4.642388e-04
4.640100e-04
4.640073e-04
4.719126e-04
4.640090e-04
4.635360e-04
4.331707e-04
4.628755e-04
4.642374e-04
4.719072e-04
4.642344e-04
4.560340e-04
4.714515e-04
4.719782e-04
4.642431e-04
4.637850e-04
4.639986e-04
4.642331e-04
4.564847e-04
4.642350e-04
4.642371e-04
4.642347e-04
4.642372e-04
4.642387e-04
4.406917e-04
4.633199e-04
4.252567e-04
4.099924e-04
4.177472e-04
4.172970e-04
4.177383e-04
4.097720e-04
4.327844e-04
4.400687e-04
4.175084e-04
4.020312e-04
4.097720e-04
4.482435e-04
4.634424e-04
4.641502e-04
4.170709e-04
4.020352e-04
4.020369e-04
4.252599e-04
4.174474e-04
3.945138e-04
4.022507e-04
3.945164e-04
3.945121e-04
4.097682e-04
4.022534e-04
4.022513e-04
4.022565e-04
4.174431e-04
4.099188e-04
4.642393e-04
4.409906e-04
4.476003e-04
4.330016e-04
4.172907e-04
4.175204e-04
4.175140e-04
4.177418e-04
4.170707e-04
4.475268e-04
4.327054e-04
4.174413e-04
4.249645e-04
4.324801e-04
4.327661e-04
4.252491e-04
4.252532e-04
3.945092e-04
3.945099e-04
4.020434e-04
4.247352e-04
4.172881e-04
4.174440e-04
4.095586e-04
4.099907e-04
4.095580e-04
4.020304e-04
4.097780e-04
4.020407e-04
3.945199e-04
4.099174e-04
3.945112e-04
4.719103e-04
4.641550e-04
4.250252e-04
4.405270e-04
4.175117e-04
4.021840e-04
4.095621e-04
4.095506e-04
4.022505e-04
4.478194e-04
4.628010e-04
4.100059e-04
4.249651e-04
4.249644e-04
4.251762e-04
4.249635e-04
4.020321e-04
4.020353e-04
4.020341e-04
4.170771e-04
4.323400e-04
4.248121e-04
4.172231e-04
3.945155e-04
4.097755e-04
4.095535e-04
3.945151e-04
4.096962e-04
4.020321e-04
4.097013e-04
4.097036e-04
4.021809e-04
4.642462e-04
4.639992e-04
4.251891e-04
4.325563e-04
4.331348e-04
4.099869e-04
4.251786e-04
4.172212e-04
3.945066e-04
4.623554e-04
4.703152e-04
4.022583e-04
4.096975e-04
4.172242e-04
4.099162e-04
4.020343e-04
3.945088e-04
3.945120e-04
4.021785e-04
4.398517e-04
4.473030e-04
4.323326e-04
4.170753e-04
3.945132e-04
4.022492e-04
4.097730e-04
4.175154e-04
4.251887e-04
4.095471e-04
4.097033e-04
4.174356e-04
4.174362e-04
4.642448e-04
4.719709e-04
4.254779e-04
4.331453e-04
4.254071e-04
4.252476e-04
4.175081e-04
4.175053e-04
4.020326e-04
4.546773e-04
4.628582e-04
4.251865e-04
4.323347e-04
4.325528e-04
4.400678e-04
4.630715e-04
4.325484e-04
4.325474e-04
4.327658e-04
4.630642e-04
4.635004e-04
4.632826e-04
4.550404e-04
4.247413e-04
4.245906e-04
4.473713e-04
4.703092e-04
4.553327e-04
4.550490e-04
4.475219e-04
4.632914e-04
4.641941e-04
4.639976e-04
4.640128e-04
4.324773e-04
4.249633e-04
4.097762e-04
4.100049e-04
4.172927e-04
4.250371e-04
4.477373e-04
4.484595e-04
4.484554e-04
4.705168e-04
4.707469e-04
4.626372e-04
4.632211e-04
4.700781e-04
4.630685e-04
4.626353e-04
4.628428e-04
4.630673e-04
4.629968e-04
4.630866e-04
4.709642e-04
4.323230e-04
4.703058e-04
4.632765e-04
4.630577e-04
4.709508e-04
4.702933e-04
4.700752e-04
4.710202e-04
4.548204e-04
4.642407e-04
4.642387e-04
4.097730e-04
3.945107e-04
4.021776e-04
4.173015e-04
4.250389e-04
4.402163e-04
4.557072e-04
4.634389e-04
4.248051e-04
4.402882e-04
4.475285e-04
4.177266e-04
4.175171e-04
4.020289e-04
4.248216e-04
4.247360e-04