ITEM: TIMESTEP
0
ITEM: NUMBER OF ATOMS
16384
ITEM: BOX BOUNDS pp pp pp
0.0 1.600000e+03
0.0 1.600000e+03
0.0 8.000000e+02
ITEM: ATOMS id type x y z crack plastic psi
1 1 0.000000e+00 0.000000e+00 0.000000e+00 0.000000e+00 0.000000e+00 -9.891214e-04
2 1 5.000000e+01 0.000000e+00 0.000000e+00 0.000000e+00 0.000000e+00 -3.154828e-05
3 1 1.000000e+02 0.000000e+00 0.000000e+00 0.000000e+00 0.000000e+00 1.403590e-04
4 1 1.500000e+02 0.000000e+00 0.000000e+00 0.000000e+00 0.000000e+00 3.729679e-04
5 1 2.000000e+02 0.000000e+00 0.000000e+00 0.000000e+00 0.000000e+00 -6.356289e-04
6 1 2.500000e+02 0.000000e+00 0.000000e+00 0.000000e+00 0.000000e+00 -1.004945e-05
7 1 3.000000e+02 0.000000e+00 0.000000e+00 0.000000e+00 0.000000e+00 -5.848997e-04
8 1 3.500000e+02 0.000000e+00 0.000000e+00 0.000000e+00 0.000000e+00 1.937053e-03
9 1 4.000000e+02 0.000000e+00 0.000000e+00 0.000000e+00 0.000000e+00 2.080555e-04
10 1 4.500000e+02 0.000000e+00 0.000000e+00 0.000000e+00 0.000000e+00 -1.085820e-03
11 1 5.000000e+02 0.000000e+00 0.000000e+00 0.000000e+00 0.000000e+00 -1.502273e-04
12 1 5.500000e+02 0.000000e+00 0.000000e+00 0.000000e+00 0.000000e+00 -5.860654e-04
13 1 6.000000e+02 0.000000e+00 0.000000e+00 0.000000e+00 0.000000e+00 1.493571e-03
14 1 6.500000e+02 0.000000e+00 0.000000e+00 0.000000e+00 0.000000e+00 -3.752184e-04
15 1 7.000000e+02 0.000000e+00 0.000000e+00 0.000000e+00 0.000000e+00 -8.400326e-04
16 1 7.500000e+02 0.000000e+00 0.000000e+00 0.000000e+00 0.000000e+00 1.458968e-03
17 1 8.000000e+02 0.000000e+00 0.000000e+00 0.000000e+00 0.000000e+00 -2.268167e-03
18 1 8.500000e+02 0.000000e+00 0.000000e+00 0.000000e+00 0.000000e+00 1.720140e-03
19 1 9.000000e+02 0.000000e+00 0.000000e+00 0.000000e+00 0.000000e+00 4.842654e-06
20 1 9.500000e+02 0.000000e+00 0.000000e+00 0.000000e+00 0.000000e+00 9.585963e-04
21 1 1.000000e+03 0.000000e+00 0.000000e+00 0.000000e+00 0.000000e+00 8.556115e-04
22 1 1.050000e+03 0.000000e+00 0.000000e+00 0.000000e+00 0.000000e+00 -1.603681e-04
23 1 1.100000e+03 0.000000e+00 0.000000e+00 0.000000e+00 0.000000e+00 -1.664871e-04
24 1 1.150000e+03 0.000000e+00 0.000000e+00 0.000000e+00 0.000000e+00 7.562957e-04
25 1 1.200000e+03 0.000000e+00 0.000000e+00 0.000000e+00 0.000000e+00 1.155801e-04
26 1 1.250000e+03 0.000000e+00 0.000000e+00 0.000000e+00 0.000000e+00 -6.781863e-04
27 1 1.300000e+03 0.000000e+00 0.000000e+00 0.000000e+00 0.000000e+00 -8.541065e-04
28 1 1.350000e+03 0.000000e+00 0.000000e+00 0.000000e+00 0.000000e+00 -1.784740e-03
29 1 1.400000e+03 0.000000e+00 0.000000e+00 0.000000e+00 0.000000e+00 6.342892e-04
30 1 1.450000e+03 0.000000e+00 0.000000e+00 0.000000e+00 0.000000e+00 -4.793822e-05
31 1 1.500000e+03 0.000000e+00 0.000000e+00 0.000000e+00 0.000000e+00 -2.485999e-04
32 1 1.550000e+03 0.000000e+00 0.000000e+00 0.000000e+00 0.000000e+00 7.055340e-04
33 1 0.000000e+00 5.000000e+01 0.000000e+00 0.000000e+00 0.000000e+00 1.532033e-03
34 1 5.000000e+01 5.000000e+01 0.000000e+00 0.000000e+00 0.000000e+00 -3.144454e-03
35 1 1.000000e+02 5.000000e+01 0.000000e+00 0.000000e+00 0.000000e+00 -1.150162e-03
36 1 1.500000e+02 5.000000e+01 0.000000e+00 0.000000e+00 0.000000e+00 1.987877e-03
37 1 2.000000e+02 5.000000e+01 0.000000e+00 0.000000e+00 0.000000e+00 -1.414805e-03
38 1 2.500000e+02 5.000000e+01 0.000000e+00 0.000000e+00 0.000000e+00 -4.647024e-04
39 1 3.000000e+02 5.000000e+01 0.000000e+00 0.000000e+00 0.000000e+00 -1.358179e-03
40 1 3.500000e+02 5.000000e+01 0.000000e+00 0.000000e+00 0.000000e+00 -1.351661e-03
41 1 4.000000e+02 5.000000e+01 0.000000e+00 0.000000e+00 0.000000e+00 -1.757160e-03
42 1 4.500000e+02 5.000000e+01 0.000000e+00 0.000000e+00 0.000000e+00 1.312390e-03
43 1 5.000000e+02 5.000000e+01 0.000000e+00 0.000000e+00 0.000000e+00 -6.458468e-04
44 1 5.500000e+02 5.000000e+01 0.000000e+00 0.000000e+00 0.000000e+00 -6.094833e-04
45 1 6.000000e+02 5.000000e+01 0.000000e+00 0.000000e+00 0.000000e+00 -1.696340e-03
46 1 6.500000e+02 5.000000e+01 0.000000e+00 0.000000e+00 0.000000e+00 -7.054326e-04
47 1 7.000000e+02 5.000000e+01 0.000000e+00 0.000000e+00 0.000000e+00 3.269041e-04
48 1 7.500000e+02 5.000000e+01 0.000000e+00 0.000000e+00 0.000000e+00 1.395190e-03
49 1 8.000000e+02 5.000000e+01 0.000000e+00 0.000000e+00 0.000000e+00 2.634440e-04
50 1 8.500000e+02 5.000000e+01 0.000000e+00 0.000000e+00 0.000000e+00 4.591847e-04
51 1 9.000000e+02 5.000000e+01 0.000000e+00 0.000000e+00 0.000000e+00 1.118252e-03
52 1 9.500000e+02 5.000000e+01 0.000000e+00 0.000000e+00 0.000000e+00 3.147095e-04
53 1 1.000000e+03 5.000000e+01 0.000000e+00 0.000000e+00 0.000000e+00 -2.216333e-04
54 1 1.050000e+03 5.000000e+01 0.000000e+00 0.000000e+00 0.000000e+00 -9.310923e-04
55 1 1.100000e+03 5.000000e+01 0.000000e+00 0.000000e+00 0.000000e+00 2.156090e-04
56 1 1.150000e+03 5.000000e+01 0.000000e+00 0.000000e+00 0.000000e+00 3.010422e-01
57 1 1.200000e+03 5.000000e+01 0.000000e+00 0.000000e+00 0.000000e+00 -1.536423e-03
58 1 1.250000e+03 5.000000e+01 0.000000e+00 0.000000e+00 0.000000e+00 -5.352329e-05
59 1 1.300000e+03 5.000000e+01 0.000000e+00 0.000000e+00 0.000000e+00 6.139026e-05
60 1 1.350000e+03 5.000000e+01 0.000000e+00 0.000000e+00 0.000000e+00 1.446924e-03
61 1 1.400000e+03 5.000000e+01 0.000000e+00 0.000000e+00 0.000000e+00 -1.066702e-03
62 1 1.450000e+03 5.000000e+01 0.000000e+00 0.000000e+00 0.000000e+00 -7.759431e-04
63 1 1.500000e+03 5.000000e+01 0.000000e+00 0.000000e+00 0.000000e+00 -6.920996e-04
64 1 1.550000e+03 5.000000e+01 0.000000e+00 0.000000e+00 0.000000e+00 -8.813036e-04
65 1 0.000000e+00 1.000000e+02 0.000000e+00 0.000000e+00 0.000000e+00 1.226229e-03
66 1 5.000000e+01 1.000000e+02 0.000000e+00 0.000000e+00 0.000000e+00 5.353032e-04
67 1 1.000000e+02 1.000000e+02 0.000000e+00 0.000000e+00 0.000000e+00 -3.093588e-04
68 1 1.500000e+02 1.000000e+02 0.000000e+00 0.000000e+00 0.000000e+00 1.630607e-04
69 1 2.000000e+02 1.000000e+02 0.000000e+00 0.000000e+00 0.000000e+00 4.936550e-04
70 1 2.500000e+02 1.000000e+02 0.000000e+00 0.000000e+00 0.000000e+00 -1.695907e-04
71 1 3.000000e+02 1.000000e+02 0.000000e+00 0.000000e+00 0.000000e+00 -1.265967e-03
72 1 3.500000e+02 1.000000e+02 0.000000e+00 0.000000e+00 0.000000e+00 -9.726662e-04
73 1 4.000000e+02 1.000000e+02 0.000000e+00 0.000000e+00 0.000000e+00 4.913811e-04
74 1 4.500000e+02 1.000000e+02 0.000000e+00 0.000000e+00 0.000000e+00 2.421410e-03
75 1 5.000000e+02 1.000000e+02 0.000000e+00 0.000000e+00 0.000000e+00 -1.620799e-03
76 1 5.500000e+02 1.000000e+02 0.000000e+00 0.000000e+00 0.000000e+00 3.663420e-04
77 1 6.000000e+02 1.000000e+02 0.000000e+00 0.000000e+00 0.000000e+00 -1.241289e-03
78 1 6.500000e+02 1.000000e+02 0.000000e+00 0.000000e+00 0.000000e+00 -6.134280e-05
79 1 7.000000e+02 1.000000e+02 0.000000e+00 0.000000e+00 0.000000e+00 1.033119e-03
80 1 7.500000e+02 1.000000e+02 0.000000e+00 0.000000e+00 0.000000e+00 3.080731e-04
81 1 8.000000e+02 1.000000e+02 0.000000e+00 0.000000e+00 0.000000e+00 -4.908959e-04
82 1 8.500000e+02 1.000000e+02 0.000000e+00 0.000000e+00 0.000000e+00 -2.552923e-03
83 1 9.000000e+02 1.000000e+02 0.000000e+00 0.000000e+00 0.000000e+00 -6.098321e-04
84 1 9.500000e+02 1.000000e+02 0.000000e+00 0.000000e+00 0.000000e+00 2.477741e-04
85 1 1.000000e+03 1.000000e+02 0.000000e+00 0.000000e+00 0.000000e+00 3.009688e-01
86 1 1.050000e+03 1.000000e+02 0.000000e+00 0.000000e+00 0.000000e+00 -6.802401e-04
87 1 1.100000e+03 1.000000e+02 0.000000e+00 0.000000e+00 0.000000e+00 2.993404e-01
88 1 1.150000e+03 1.000000e+02 0.000000e+00 0.000000e+00 0.000000e+00 -1.876973e-03
89 1 1.200000e+03 1.000000e+02 0.000000e+00 0.000000e+00 0.000000e+00 3.022911e-04
90 1 1.250000e+03 1.000000e+02 0.000000e+00 0.000000e+00 0.000000e+00 -9.764039e-04
91 1 1.300000e+03 1.000000e+02 0.000000e+00 0.000000e+00 0.000000e+00 -9.314324e-04
92 1 1.350000e+03 1.000000e+02 0.000000e+00 0.000000e+00 0.000000e+00 -6.885794e-04
93 1 1.400000e+03 1.000000e+02 0.000000e+00 0.000000e+00 0.000000e+00 6.199851e-04
94 1 1.450000e+03 1.000000e+02 0.000000e+00 0.000000e+00 0.000000e+00 -9.929586e-05
95 1 1.500000e+03 1.000000e+02 0.000000e+00 0.000000e+00 0.000000e+00 3.011584e-01
96 1 1.550000e+03 1.000000e+02 0.000000e+00 0.000000e+00 0.000000e+00 2.843578e-04
97 1 0.000000e+00 1.500000e+02 0.000000e+00 0.000000e+00 0.000000e+00 2.289910e-03
98 1 5.000000e+01 1.500000e+02 0.000000e+00 0.000000e+00 0.000000e+00 2.148818e-05
99 1 1.000000e+02 1.500000e+02 0.000000e+00 0.000000e+00 0.000000e+00 -6.546874e-05
100 1 1.500000e+02 1.500000e+02 0.000000e+00 0.000000e+00 0.000000e+00 -2.172131e-03
101 1 2.000000e+02 1.500000e+02 0.000000e+00 0.000000e+00 0.000000e+00 1.454044e-03
102 1 2.500000e+02 1.500000e+02 0.000000e+00 0.000000e+00 0.000000e+00 1.271770e-03
103 1 3.000000e+02 1.500000e+02 0.000000e+00 0.000000e+00 0.000000e+00 3.009149e-01
104 1 3.500000e+02 1.500000e+02 0.000000e+00 0.000000e+00 0.000000e+00 -5.146193e-04
105 1 4.000000e+02 1.500000e+02 0.000000e+00 0.000000e+00 0.000000e+00 -6.618177e-04
106 1 4.500000e+02 1.500000e+02 0.000000e+00 0.000000e+00 0.000000e+00 -8.696610e-05
107 1 5.000000e+02 1.500000e+02 0.000000e+00 0.000000e+00 0.000000e+00 -7.174221e-04
108 1 5.500000e+02 1.500000e+02 0.000000e+00 0.000000e+00 0.000000e+00 3.052599e-04
109 1 6.000000e+02 1.500000e+02 0.000000e+00 0.000000e+00 0.000000e+00 6.786293e-04
110 1 6.500000e+02 1.500000e+02 0.000000e+00 0.000000e+00 0.000000e+00 -1.277992e-03
111 1 7.000000e+02 1.500000e+02 0.000000e+00 0.000000e+00 0.000000e+00 6.264588e-04
112 1 7.500000e+02 1.500000e+02 0.000000e+00 0.000000e+00 0.000000e+00 3.934840e-04
113 1 8.000000e+02 1.500000e+02 0.000000e+00 0.000000e+00 0.000000e+00 -1.293844e-03
114 1 8.500000e+02 1.500000e+02 0.000000e+00 0.000000e+00 0.000000e+00 7.285802e-04
115 1 9.000000e+02 1.500000e+02 0.000000e+00 0.000000e+00 0.000000e+00 -6.711885e-04
116 1 9.500000e+02 1.500000e+02 0.000000e+00 0.000000e+00 0.000000e+00 1.215055e-03
117 1 1.000000e+03 1.500000e+02 0.000000e+00 0.000000e+00 0.000000e+00 -1.091425e-04
118 1 1.050000e+03 1.500000e+02 0.000000e+00 0.000000e+00 0.000000e+00 -1.313923e-04
119 1 1.100000e+03 1.500000e+02 0.000000e+00 0.000000e+00 0.000000e+00 5.312513e-04
120 1 1.150000e+03 1.500000e+02 0.000000e+00 0.000000e+00 0.000000e+00 -5.586749e-05
121 1 1.200000e+03 1.500000e+02 0.000000e+00 0.000000e+00 0.000000e+00 7.091997e-04
122 1 1.250000e+03 1.500000e+02 0.000000e+00 0.000000e+00 0.000000e+00 3.010595e-01
123 1 1.300000e+03 1.500000e+02 0.000000e+00 0.000000e+00 0.000000e+00 2.951215e-03
124 1 1.350000e+03 1.500000e+02 0.000000e+00 0.000000e+00 0.000000e+00 2.990494e-01
125 1 1.400000e+03 1.500000e+02 0.000000e+00 0.000000e+00 0.000000e+00 -5.028486e-04
126 1 1.450000e+03 1.500000e+02 0.000000e+00 0.000000e+00 0.000000e+00 6.362451e-04
127 1 1.500000e+03 1.500000e+02 0.000000e+00 0.000000e+00 0.000000e+00 2.619874e-04
128 1 1.550000e+03 1.500000e+02 0.000000e+00 0.000000e+00 0.000000e+00 8.011689e-04
129 1 0.000000e+00 2.000000e+02 0.000000e+00 0.000000e+00 0.000000e+00 -1.436270e-03
130 1 5.000000e+01 2.000000e+02 0.000000e+00 0.000000e+00 0.000000e+00 3.016709e-01
131 1 1.000000e+02 2.000000e+02 0.000000e+00 0.000000e+00 0.000000e+00 -1.551851e-03
132 1 1.500000e+02 2.000000e+02 0.000000e+00 0.000000e+00 0.000000e+00 1.516348e-03
133 1 2.000000e+02 2.000000e+02 0.000000e+00 0.000000e+00 0.000000e+00 -1.615657e-03
134 1 2.500000e+02 2.000000e+02 0.000000e+00 0.000000e+00 0.000000e+00 -6.145677e-04
135 1 3.000000e+02 2.000000e+02 0.000000e+00 0.000000e+00 0.000000e+00 -1.421183e-03
136 1 3.500000e+02 2.000000e+02 0.000000e+00 0.000000e+00 0.000000e+00 1.418222e-03
137 1 4.000000e+02 2.000000e+02 0.000000e+00 0.000000e+00 0.000000e+00 9.522925e-04
138 1 4.500000e+02 2.000000e+02 0.000000e+00 0.000000e+00 0.000000e+00 -7.461319e-04
139 1 5.000000e+02 2.000000e+02 0.000000e+00 0.000000e+00 0.000000e+00 -1.003461e-04
140 1 5.500000e+02 2.000000e+02 0.000000e+00 0.000000e+00 0.000000e+00 1.330464e-03
141 1 6.000000e+02 2.000000e+02 0.000000e+00 0.000000e+00 0.000000e+00 -2.464021e-04
142 1 6.500000e+02 2.000000e+02 0.000000e+00 0.000000e+00 0.000000e+00 -3.216929e-04
143 1 7.000000e+02 2.000000e+02 0.000000e+00 0.000000e+00 0.000000e+00 1.598435e-03
144 1 7.500000e+02 2.000000e+02 0.000000e+00 0.000000e+00 0.000000e+00 -8.653930e-04
145 1 8.000000e+02 2.000000e+02 0.000000e+00 0.000000e+00 0.000000e+00 5.241186e-04
146 1 8.500000e+02 2.000000e+02 0.000000e+00 0.000000e+00 0.000000e+00 -8.734582e-04
147 1 9.000000e+02 2.000000e+02 0.000000e+00 0.000000e+00 0.000000e+00 -5.976192e-05
148 1 9.500000e+02 2.000000e+02 0.000000e+00 0.000000e+00 0.000000e+00 -4.767284e-04
149 1 1.000000e+03 2.000000e+02 0.000000e+00 0.000000e+00 0.000000e+00 1.388783e-03
150 1 1.050000e+03 2.000000e+02 0.000000e+00 0.000000e+00 0.000000e+00 9.196917e-06
151 1 1.100000e+03 2.000000e+02 0.000000e+00 0.000000e+00 0.000000e+00 -1.190165e-04
152 1 1.150000e+03 2.000000e+02 0.000000e+00 0.000000e+00 0.000000e+00 -1.320645e-03
153 1 1.200000e+03 2.000000e+02 0.000000e+00 0.000000e+00 0.000000e+00 -9.587330e-04
154 1 1.250000e+03 2.000000e+02 0.000000e+00 0.000000e+00 0.000000e+00 -2.577739e-04
155 1 1.300000e+03 2.000000e+02 0.000000e+00 0.000000e+00 0.000000e+00 -3.841651e-04
156 1 1.350000e+03 2.000000e+02 0.000000e+00 0.000000e+00 0.000000e+00 -1.690824e-03
157 1 1.400000e+03 2.000000e+02 0.000000e+00 0.000000e+00 0.000000e+00 -1.416246e-03
158 1 1.450000e+03 2.000000e+02 0.000000e+00 0.000000e+00 0.000000e+00 2.995861e-01
159 1 1.500000e+03 2.000000e+02 0.000000e+00 0.000000e+00 0.000000e+00 -4.986531e-04
160 1 1.550000e+03 2.000000e+02 0.000000e+00 0.000000e+00 0.000000e+00 1.316141e-03
161 1 0.000000e+00 2.500000e+02 0.000000e+00 0.000000e+00 0.000000e+00 2.993795e-01
162 1 5.000000e+01 2.500000e+02 0.000000e+00 0.000000e+00 0.000000e+00 7.525205e-04
163 1 1.000000e+02 2.500000e+02 0.000000e+00 0.000000e+00 0.000000e+00 -3.574497e-04
164 1 1.500000e+02 2.500000e+02 0.000000e+00 0.000000e+00 0.000000e+00 1.007147e-04
165 1 2.000000e+02 2.500000e+02 0.000000e+00 0.000000e+00 0.000000e+00 1.485350e-03
166 1 2.500000e+02 2.500000e+02 0.000000e+00 0.000000e+00 0.000000e+00 -3.800652e-04
167 1 3.000000e+02 2.500000e+02 0.000000e+00 0.000000e+00 0.000000e+00 -1.651793e-03
168 1 3.500000e+02 2.500000e+02 0.000000e+00 0.000000e+00 0.000000e+00 4.467542e-04
169 1 4.000000e+02 2.500000e+02 0.000000e+00 0.000000e+00 0.000000e+00 9.849563e-04
170 1 4.500000e+02 2.500000e+02 0.000000e+00 0.000000e+00 0.000000e+00 3.712826e-05
171 1 5.000000e+02 2.500000e+02 0.000000e+00 0.000000e+00 0.000000e+00 -7.111304e-05
172 1 5.500000e+02 2.500000e+02 0.000000e+00 0.000000e+00 0.000000e+00 -1.267228e-04
173 1 6.000000e+02 2.500000e+02 0.000000e+00 0.000000e+00 0.000000e+00 1.280976e-04
174 1 6.500000e+02 2.500000e+02 0.000000e+00 0.000000e+00 0.000000e+00 4.761008e-04
175 1 7.000000e+02 2.500000e+02 0.000000e+00 0.000000e+00 0.000000e+00 1.742395e-03
176 1 7.500000e+02 2.500000e+02 0.000000e+00 0.000000e+00 0.000000e+00 -3.943333e-04
177 1 8.000000e+02 2.500000e+02 0.000000e+00 0.000000e+00 0.000000e+00 -1.056907e-03
178 1 8.500000e+02 2.500000e+02 0.000000e+00 0.000000e+00 0.000000e+00 -8.992214e-05
179 1 9.000000e+02 2.500000e+02 0.000000e+00 0.000000e+00 0.000000e+00 -2.138968e-04
180 1 9.500000e+02 2.500000e+02 0.000000e+00 0.000000e+00 0.000000e+00 -1.992465e-04
181 1 1.000000e+03 2.500000e+02 0.000000e+00 0.000000e+00 0.000000e+00 7.410580e-04
182 1 1.050000e+03 2.500000e+02 0.000000e+00 0.000000e+00 0.000000e+00 2.988959e-01
183 1 1.100000e+03 2.500000e+02 0.000000e+00 0.000000e+00 0.000000e+00 4.640203e-04
184 1 1.150000e+03 2.500000e+02 0.000000e+00 0.000000e+00 0.000000e+00 1.774878e-03
185 1 1.200000e+03 2.500000e+02 0.000000e+00 0.000000e+00 0.000000e+00 8.489295e-04
186 1 1.250000e+03 2.500000e+02 0.000000e+00 0.000000e+00 0.000000e+00 -9.414645e-04
187 1 1.300000e+03 2.500000e+02 0.000000e+00 0.000000e+00 0.000000e+00 -4.379621e-04
188 1 1.350000e+03 2.500000e+02 0.000000e+00 0.000000e+00 0.000000e+00 -7.074213e-06
189 1 1.400000e+03 2.500000e+02 0.000000e+00 0.000000e+00 0.000000e+00 8.559497e-04
190 1 1.450000e+03 2.500000e+02 0.000000e+00 0.000000e+00 0.000000e+00 3.820013e-04
191 1 1.500000e+03 2.500000e+02 0.000000e+00 0.000000e+00 0.000000e+00 -3.703494e-05
192 1 1.550000e+03 2.500000e+02 0.000000e+00 0.000000e+00 0.000000e+00 3.009446e-01
193 1 0.000000e+00 3.000000e+02 0.000000e+00 0.000000e+00 0.000000e+00 -3.035913e-04
194 1 5.000000e+01 3.000000e+02 0.000000e+00 0.000000e+00 0.000000e+00 -8.579713e-04
195 1 1.000000e+02 3.000000e+02 0.000000e+00 0.000000e+00 0.000000e+00 -4.500198e-04
196 1 1.500000e+02 3.000000e+02 0.000000e+00 0.000000e+00 0.000000e+00 1.355574e-03
197 1 2.000000e+02 3.000000e+02 0.000000e+00 0.000000e+00 0.000000e+00 1.502186e-04
198 1 2.500000e+02 3.000000e+02 0.000000e+00 0.000000e+00 0.000000e+00 -6.016919e-04
199 1 3.000000e+02 3.000000e+02 0.000000e+00 0.000000e+00 0.000000e+00 -1.977503e-03
200 1 3.500000e+02 3.000000e+02 0.000000e+00 0.000000e+00 0.000000e+00 -1.440077e-03
201 1 4.000000e+02 3.000000e+02 0.000000e+00 0.000000e+00 0.000000e+00 3.009282e-01
202 1 4.500000e+02 3.000000e+02 0.000000e+00 0.000000e+00 0.000000e+00 1.259787e-03
203 1 5.000000e+02 3.000000e+02 0.000000e+00 0.000000e+00 0.000000e+00 2.615222e-04
204 1 5.500000e+02 3.000000e+02 0.000000e+00 0.000000e+00 0.000000e+00 4.009080e-04
205 1 6.000000e+02 3.000000e+02 0.000000e+00 0.000000e+00 0.000000e+00 2.996320e-01
206 1 6.500000e+02 3.000000e+02 0.000000e+00 0.000000e+00 0.000000e+00 1.620940e-04
207 1 7.000000e+02 3.000000e+02 0.000000e+00 0.000000e+00 0.000000e+00 -3.858250e-04
208 1 7.500000e+02 3.000000e+02 0.000000e+00 0.000000e+00 0.000000e+00 -1.201869e-03
209 1 8.000000e+02 3.000000e+02 0.000000e+00 0.000000e+00 0.000000e+00 1.776315e-04
210 1 8.500000e+02 3.000000e+02 0.000000e+00 0.000000e+00 0.000000e+00 2.988389e-01
211 1 9.000000e+02 3.000000e+02 0.000000e+00 0.000000e+00 0.000000e+00 3.752265e-04
212 1 9.500000e+02 3.000000e+02 0.000000e+00 0.000000e+00 0.000000e+00 -4.439294e-04
213 1 1.000000e+03 3.000000e+02 0.000000e+00 0.000000e+00 0.000000e+00 -1.907304e-04
214 1 1.050000e+03 3.000000e+02 0.000000e+00 0.000000e+00 0.000000e+00 3.698192e-04
215 1 1.100000e+03 3.000000e+02 0.000000e+00 0.000000e+00 0.000000e+00 8.744878e-05
216 1 1.150000e+03 3.000000e+02 0.000000e+00 0.000000e+00 0.000000e+00 -1.230662e-03
217 1 1.200000e+03 3.000000e+02 0.000000e+00 0.000000e+00 0.000000e+00 -6.766872e-04
218 1 1.250000e+03 3.000000e+02 0.000000e+00 0.000000e+00 0.000000e+00 -6.719312e-04
219 1 1.300000e+03 3.000000e+02 0.000000e+00 0.000000e+00 0.000000e+00 3.000023e-01
220 1 1.350000e+03 3.000000e+02 0.000000e+00 0.000000e+00 0.000000e+00 -1.019551e-03
221 1 1.400000e+03 3.000000e+02 0.000000e+00 0.000000e+00 0.000000e+00 1.618766e-04
222 1 1.450000e+03 3.000000e+02 0.000000e+00 0.000000e+00 0.000000e+00 2.280681e-03
223 1 1.500000e+03 3.000000e+02 0.000000e+00 0.000000e+00 0.000000e+00 5.514816e-04
224 1 1.550000e+03 3.000000e+02 0.000000e+00 0.000000e+00 0.000000e+00 5.644257e-04
225 1 0.000000e+00 3.500000e+02 0.000000e+00 0.000000e+00 0.000000e+00 -3.777586e-04
226 1 5.000000e+01 3.500000e+02 0.000000e+00 0.000000e+00 0.000000e+00 9.791191e-04
227 1 1.000000e+02 3.500000e+02 0.000000e+00 0.000000e+00 0.000000e+00 -9.884219e-04
228 1 1.500000e+02 3.500000e+02 0.000000e+00 0.000000e+00 0.000000e+00 -2.891641e-04
229 1 2.000000e+02 3.500000e+02 0.000000e+00 0.000000e+00 0.000000e+00 2.975562e-04
230 1 2.500000e+02 3.500000e+02 0.000000e+00 0.000000e+00 0.000000e+00 -1.195961e-04
231 1 3.000000e+02 3.500000e+02 0.000000e+00 0.000000e+00 0.000000e+00 2.205242e-04
232 1 3.500000e+02 3.500000e+02 0.000000e+00 0.000000e+00 0.000000e+00 1.043039e-03
233 1 4.000000e+02 3.500000e+02 0.000000e+00 0.000000e+00 0.000000e+00 -7.035248e-04
234 1 4.500000e+02 3.500000e+02 0.000000e+00 0.000000e+00 0.000000e+00 5.951100e-04
235 1 5.000000e+02 3.500000e+02 0.000000e+00 0.000000e+00 0.000000e+00 -1.905611e-03
236 1 5.500000e+02 3.500000e+02 0.000000e+00 0.000000e+00 0.000000e+00 7.645553e-04
237 1 6.000000e+02 3.500000e+02 0.000000e+00 0.000000e+00 0.000000e+00 8.973080e-04
238 1 6.500000e+02 3.500000e+02 0.000000e+00 0.000000e+00 0.000000e+00 8.555422e-04
239 1 7.000000e+02 3.500000e+02 0.000000e+00 0.000000e+00 0.000000e+00 -3.097123e-04
240 1 7.500000e+02 3.500000e+02 0.000000e+00 0.000000e+00 0.000000e+00 2.993663e-01
241 1 8.000000e+02 3.500000e+02 0.000000e+00 0.000000e+00 0.000000e+00 -1.060828e-03
242 1 8.500000e+02 3.500000e+02 0.000000e+00 0.000000e+00 0.000000e+00 2.050654e-04
243 1 9.000000e+02 3.500000e+02 0.000000e+00 0.000000e+00 0.000000e+00 -1.465496e-03
244 1 9.500000e+02 3.500000e+02 0.000000e+00 0.000000e+00 0.000000e+00 1.214574e-03
245 1 1.000000e+03 3.500000e+02 0.000000e+00 0.000000e+00 0.000000e+00 -2.541250e-03
246 1 1.050000e+03 3.500000e+02 0.000000e+00 0.000000e+00 0.000000e+00 4.980230e-04
247 1 1.100000e+03 3.500000e+02 0.000000e+00 0.000000e+00 0.000000e+00 1.874138e-04
248 1 1.150000e+03 3.500000e+02 0.000000e+00 0.000000e+00 0.000000e+00 3.010832e-01
249 1 1.200000e+03 3.500000e+02 0.000000e+00 0.000000e+00 0.000000e+00 9.827526e-04
250 1 1.250000e+03 3.500000e+02 0.000000e+00 0.000000e+00 0.000000e+00 -3.490764e-04
251 1 1.300000e+03 3.500000e+02 0.000000e+00 0.000000e+00 0.000000e+00 1.577028e-03
252 1 1.350000e+03 3.500000e+02 0.000000e+00 0.000000e+00 0.000000e+00 8.822017e-04
253 1 1.400000e+03 3.500000e+02 0.000000e+00 0.000000e+00 0.000000e+00 -6.796959e-04
254 1 1.450000e+03 3.500000e+02 0.000000e+00 0.000000e+00 0.000000e+00 -2.493577e-03
255 1 1.500000e+03 3.500000e+02 0.000000e+00 0.000000e+00 0.000000e+00 2.036416e-04
256 1 1.550000e+03 3.500000e+02 0.000000e+00 0.000000e+00 0.000000e+00 1.039677e-03
257 1 0.000000e+00 4.000000e+02 0.000000e+00 0.000000e+00 0.000000e+00 2.001231e-03
258 1 5.000000e+01 4.000000e+02 0.000000e+00 0.000000e+00 0.000000e+00 7.518011e-04
259 1 1.000000e+02 4.000000e+02 0.000000e+00 0.000000e+00 0.000000e+00 4.810419e-04
260 1 1.500000e+02 4.000000e+02 0.000000e+00 0.000000e+00 0.000000e+00 -5.485321e-04
261 1 2.000000e+02 4.000000e+02 0.000000e+00 0.000000e+00 0.000000e+00 5.295273e-04
262 1 2.500000e+02 4.000000e+02 0.000000e+00 0.000000e+00 0.000000e+00 5.070135e-04
263 1 3.000000e+02 4.000000e+02 0.000000e+00 0.000000e+00 0.000000e+00 -5.266015e-04
264 1 3.500000e+02 4.000000e+02 0.000000e+00 0.000000e+00 0.000000e+00 6.335106e-04
265 1 4.000000e+02 4.000000e+02 0.000000e+00 0.000000e+00 0.000000e+00 -9.897648e-04
266 1 4.500000e+02 4.000000e+02 0.000000e+00 0.000000e+00 0.000000e+00 8.747010e-04
267 1 5.000000e+02 4.000000e+02 0.000000e+00 0.000000e+00 0.000000e+00 -2.794265e-04
268 1 5.500000e+02 4.000000e+02 0.000000e+00 0.000000e+00 0.000000e+00 7.551835e-04
269 1 6.000000e+02 4.000000e+02 0.000000e+00 0.000000e+00 0.000000e+00 1.126562e-03
270 1 6.500000e+02 4.000000e+02 0.000000e+00 0.000000e+00 0.000000e+00 2.023210e-04
271 1 7.000000e+02 4.000000e+02 0.000000e+00 0.000000e+00 0.000000e+00 8.078014e-04
272 1 7.500000e+02 4.000000e+02 0.000000e+00 0.000000e+00 0.000000e+00 7.568541e-05
273 1 8.000000e+02 4.000000e+02 0.000000e+00 0.000000e+00 0.000000e+00 1.633253e-03
274 1 8.500000e+02 4.000000e+02 0.000000e+00 0.000000e+00 0.000000e+00 -3.793618e-04
275 1 9.000000e+02 4.000000e+02 0.000000e+00 0.000000e+00 0.000000e+00 1.314847e-03
276 1 9.500000e+02 4.000000e+02 0.000000e+00 0.000000e+00 0.000000e+00 4.761876e-04
277 1 1.000000e+03 4.000000e+02 0.000000e+00 0.000000e+00 0.000000e+00 -7.705226e-05
278 1 1.050000e+03 4.000000e+02 0.000000e+00 0.000000e+00 0.000000e+00 -1.075727e-03
279 1 1.100000e+03 4.000000e+02 0.000000e+00 0.000000e+00 0.000000e+00 3.519130e-04
280 1 1.150000e+03 4.000000e+02 0.000000e+00 0.000000e+00 0.000000e+00 1.273363e-03
281 1 1.200000e+03 4.000000e+02 0.000000e+00 0.000000e+00 0.000000e+00 9.670534e-05
282 1 1.250000e+03 4.000000e+02 0.000000e+00 0.000000e+00 0.000000e+00 -8.059272e-04
283 1 1.300000e+03 4.000000e+02 0.000000e+00 0.000000e+00 0.000000e+00 4.881418e-04
284 1 1.350000e+03 4.000000e+02 0.000000e+00 0.000000e+00 0.000000e+00 2.902550e-04
285 1 1.400000e+03 4.000000e+02 0.000000e+00 0.000000e+00 0.000000e+00 -2.097698e-04
286 1 1.450000e+03 4.000000e+02 0.000000e+00 0.000000e+00 0.000000e+00 1.688025e-03
287 1 1.500000e+03 4.000000e+02 0.000000e+00 0.000000e+00 0.000000e+00 7.144557e-04
288 1 1.550000e+03 4.000000e+02 0.000000e+00 0.000000e+00 0.000000e+00 -2.793714e-04
289 1 0.000000e+00 4.500000e+02 0.000000e+00 0.000000e+00 0.000000e+00 4.107281e-04
290 1 5.000000e+01 4.500000e+02 0.000000e+00 0.000000e+00 0.000000e+00 3.012443e-01
291 1 1.000000e+02 4.500000e+02 0.000000e+00 0.000000e+00 0.000000e+00 -2.326454e-03
292 1 1.500000e+02 4.500000e+02 0.000000e+00 0.000000e+00 0.000000e+00 -4.683570e-04
293 1 2.000000e+02 4.500000e+02 0.000000e+00 0.000000e+00 0.000000e+00 1.746257e-04
294 1 2.500000e+02 4.500000e+02 0.000000e+00 0.000000e+00 0.000000e+00 1.111602e-03
295 1 3.000000e+02 4.500000e+02 0.000000e+00 0.000000e+00 0.000000e+00 3.004705e-01
296 1 3.500000e+02 4.500000e+02 0.000000e+00 0.000000e+00 0.000000e+00 -1.396928e-03
297 1 4.000000e+02 4.500000e+02 0.000000e+00 0.000000e+00 0.000000e+00 1.414240e-03
298 1 4.500000e+02 4.500000e+02 0.000000e+00 0.000000e+00 0.000000e+00 -4.593786e-04
299 1 5.000000e+02 4.500000e+02 0.000000e+00 0.000000e+00 0.000000e+00 4.694324e-04
300 1 5.500000e+02 4.500000e+02 0.000000e+00 0.000000e+00 0.000000e+00 1.219194e-03
301 1 6.000000e+02 4.500000e+02 0.000000e+00 0.000000e+00 0.000000e+00 -7.168841e-05
302 1 6.500000e+02 4.500000e+02 0.000000e+00 0.000000e+00 0.000000e+00 -1.067760e-03
303 1 7.000000e+02 4.500000e+02 0.000000e+00 0.000000e+00 0.000000e+00 3.000735e-01
304 1 7.500000e+02 4.500000e+02 0.000000e+00 0.000000e+00 0.000000e+00 2.985716e-01
305 1 8.000000e+02 4.500000e+02 0.000000e+00 0.000000e+00 0.000000e+00 7.880401e-04
306 1 8.500000e+02 4.500000e+02 0.000000e+00 0.000000e+00 0.000000e+00 -3.078468e-04
307 1 9.000000e+02 4.500000e+02 0.000000e+00 0.000000e+00 0.000000e+00 3.583699e-04
308 1 9.500000e+02 4.500000e+02 0.000000e+00 0.000000e+00 0.000000e+00 8.177424e-04
309 1 1.000000e+03 4.500000e+02 0.000000e+00 0.000000e+00 0.000000e+00 9.795994e-04
310 1 1.050000e+03 4.500000e+02 0.000000e+00 0.000000e+00 0.000000e+00 3.800821e-04
311 1 1.100000e+03 4.500000e+02 0.000000e+00 0.000000e+00 0.000000e+00 -5.253032e-04
312 1 1.150000e+03 4.500000e+02 0.000000e+00 0.000000e+00 0.000000e+00 -2.931641e-04
313 1 1.200000e+03 4.500000e+02 0.000000e+00 0.000000e+00 0.000000e+00 -1.012453e-03
314 1 1.250000e+03 4.500000e+02 0.000000e+00 0.000000e+00 0.000000e+00 7.604311e-04
315 1 1.300000e+03 4.500000e+02 0.000000e+00 0.000000e+00 0.000000e+00 9.235670e-04
316 1 1.350000e+03 4.500000e+02 0.000000e+00 0.000000e+00 0.000000e+00 2.989001e-01
317 1 1.400000e+03 4.500000e+02 0.000000e+00 0.000000e+00 0.000000e+00 -6.503343e-04
318 1 1.450000e+03 4.500000e+02 0.000000e+00 0.000000e+00 0.000000e+00 7.299610e-04
319 1 1.500000e+03 4.500000e+02 0.000000e+00 0.000000e+00 0.000000e+00 7.428469e-04
320 1 1.550000e+03 4.500000e+02 0.000000e+00 0.000000e+00 0.000000e+00 7.489252e-04
321 1 0.000000e+00 5.000000e+02 0.000000e+00 0.000000e+00 0.000000e+00 -1.931308e-03
322 1 5.000000e+01 5.000000e+02 0.000000e+00 0.000000e+00 0.000000e+00 3.765893e-04
323 1 1.000000e+02 5.000000e+02 0.000000e+00 0.000000e+00 0.000000e+00 3.320384e-04
324 1 1.500000e+02 5.000000e+02 0.000000e+00 0.000000e+00 0.000000e+00 1.287299e-03
325 1 2.000000e+02 5.000000e+02 0.000000e+00 0.000000e+00 0.000000e+00 9.321273e-05
326 1 2.500000e+02 5.000000e+02 0.000000e+00 0.000000e+00 0.000000e+00 -4.971361e-04
327 1 3.000000e+02 5.000000e+02 0.000000e+00 0.000000e+00 0.000000e+00 -1.454410e-03
328 1 3.500000e+02 5.000000e+02 0.000000e+00 0.000000e+00 0.000000e+00 -2.884316e-04
329 1 4.000000e+02 5.000000e+02 0.000000e+00 0.000000e+00 0.000000e+00 1.163559e-03
330 1 4.500000e+02 5.000000e+02 0.000000e+00 0.000000e+00 0.000000e+00 -3.506681e-04
331 1 5.000000e+02 5.000000e+02 0.000000e+00 0.000000e+00 0.000000e+00 7.248139e-04
332 1 5.500000e+02 5.000000e+02 0.000000e+00 0.000000e+00 0.000000e+00 -2.549156e-04
333 1 6.000000e+02 5.000000e+02 0.000000e+00 0.000000e+00 0.000000e+00 2.795837e-04
334 1 6.500000e+02 5.000000e+02 0.000000e+00 0.000000e+00 0.000000e+00 -1.778829e-03
335 1 7.000000e+02 5.000000e+02 0.000000e+00 0.000000e+00 0.000000e+00 9.893407e-04
336 1 7.500000e+02 5.000000e+02 0.000000e+00 0.000000e+00 0.000000e+00 1.742164e-03
337 1 8.000000e+02 5.000000e+02 0.000000e+00 0.000000e+00 0.000000e+00 1.015463e-03
338 1 8.500000e+02 5.000000e+02 0.000000e+00 0.000000e+00 0.000000e+00 -5.859965e-04
339 1 9.000000e+02 5.000000e+02 0.000000e+00 0.000000e+00 0.000000e+00 7.694680e-04
340 1 9.500000e+02 5.000000e+02 0.000000e+00 0.000000e+00 0.000000e+00 5.829686e-04
341 1 1.000000e+03 5.000000e+02 0.000000e+00 0.000000e+00 0.000000e+00 2.980797e-01
342 1 1.050000e+03 5.000000e+02 0.000000e+00 0.000000e+00 0.000000e+00 1.347651e-03
343 1 1.100000e+03 5.000000e+02 0.000000e+00 0.000000e+00 0.000000e+00 2.998643e-01
344 1 1.150000e+03 5.000000e+02 0.000000e+00 0.000000e+00 0.000000e+00 -1.739541e-04
345 1 1.200000e+03 5.000000e+02 0.000000e+00 0.000000e+00 0.000000e+00 1.419572e-03
346 1 1.250000e+03 5.000000e+02 0.000000e+00 0.000000e+00 0.000000e+00 -3.638752e-04
347 1 1.300000e+03 5.000000e+02 0.000000e+00 0.000000e+00 0.000000e+00 1.466879e-04
348 1 1.350000e+03 5.000000e+02 0.000000e+00 0.000000e+00 0.000000e+00 -7.298072e-06
349 1 1.400000e+03 5.000000e+02 0.000000e+00 0.000000e+00 0.000000e+00 1.019577e-03
350 1 1.450000e+03 5.000000e+02 0.000000e+00 0.000000e+00 0.000000e+00 -3.683405e-04
351 1 1.500000e+03 5.000000e+02 0.000000e+00 0.000000e+00 0.000000e+00 -7.818892e-05
352 1 1.550000e+03 5.000000e+02 0.000000e+00 0.000000e+00 0.000000e+00 -4.062219e-04
353 1 0.000000e+00 5.500000e+02 0.000000e+00 0.000000e+00 0.000000e+00 -5.347831e-04
354 1 5.000000e+01 5.500000e+02 0.000000e+00 0.000000e+00 0.000000e+00 -8.744937e-05