ITEM: TIMESTEP
6
ITEM: NUMBER OF ATOMS
16384
ITEM: BOX BOUNDS pp pp pp
0.0 1.600000e+03
0.0 1.600000e+03
0.0 8.000000e+02
ITEM: ATOMS id type x y z crack plastic psi
1 1 0.000000e+00 0.000000e+00 0.000000e+00 0.000000e+00 6.432446e-03 -4.517958e-03
2 1 5.000000e+01 0.000000e+00 0.000000e+00 0.000000e+00 5.812267e-03 -4.721315e-03
3 1 1.000000e+02 0.000000e+00 0.000000e+00 0.000000e+00 9.988384e-03 -6.895884e-03
4 1 1.500000e+02 0.000000e+00 0.000000e+00 0.000000e+00 1.410652e-02 -4.081198e-03
5 1 2.000000e+02 0.000000e+00 0.000000e+00 0.000000e+00 4.662923e-01 -4.720928e-03
6 1 2.500000e+02 0.000000e+00 0.000000e+00 0.000000e+00 6.965161e-03 -4.465663e-03
7 1 3.000000e+02 0.000000e+00 0.000000e+00 0.000000e+00 1.373130e-02 -6.366443e-03
8 1 3.500000e+02 0.000000e+00 0.000000e+00 0.000000e+00 2.412000e-01 -4.514993e-03
9 1 4.000000e+02 0.000000e+00 0.000000e+00 0.000000e+00 6.707224e-01 9.422133e-02
10 1 4.500000e+02 0.000000e+00 0.000000e+00 0.000000e+00 5.408093e-01 -5.944928e-03
11 1 5.000000e+02 0.000000e+00 0.000000e+00 0.000000e+00 8.529991e-03 -4.650009e-03
12 1 5.500000e+02 0.000000e+00 0.000000e+00 0.000000e+00 1.847070e-02 -7.549993e-03
13 1 6.000000e+02 0.000000e+00 0.000000e+00 0.000000e+00 9.227263e-03 -3.880227e-03
14 1 6.500000e+02 0.000000e+00 0.000000e+00 0.000000e+00 6.660266e-03 -5.216350e-03
15 1 7.000000e+02 0.000000e+00 0.000000e+00 0.000000e+00 1.665473e-02 -6.166211e-03
16 1 7.500000e+02 0.000000e+00 0.000000e+00 0.000000e+00 4.705924e-01 -5.104500e-03
17 1 8.000000e+02 0.000000e+00 0.000000e+00 0.000000e+00 8.795435e-03 -4.266001e-03
18 1 8.500000e+02 0.000000e+00 0.000000e+00 0.000000e+00 6.341472e-03 -5.411864e-03
19 1 9.000000e+02 0.000000e+00 0.000000e+00 0.000000e+00 2.353710e-01 -6.221452e-03
20 1 9.500000e+02 0.000000e+00 0.000000e+00 0.000000e+00 6.578100e-01 9.243544e-02
21 1 1.000000e+03 0.000000e+00 0.000000e+00 0.000000e+00 2.332103e-01 -5.274990e-03
22 1 1.050000e+03 0.000000e+00 0.000000e+00 0.000000e+00 6.624561e-03 -4.880838e-03
23 1 1.100000e+03 0.000000e+00 0.000000e+00 0.000000e+00 4.784503e-03 -4.951116e-03
24 1 1.150000e+03 0.000000e+00 0.000000e+00 0.000000e+00 5.095793e-03 -4.297987e-03
25 1 1.200000e+03 0.000000e+00 0.000000e+00 0.000000e+00 1.091747e-02 -5.174551e-03
26 1 1.250000e+03 0.000000e+00 0.000000e+00 0.000000e+00 6.124062e-03 -3.363218e-03
27 1 1.300000e+03 0.000000e+00 0.000000e+00 0.000000e+00 4.761491e-01 -5.979141e-03
28 1 1.350000e+03 0.000000e+00 0.000000e+00 0.000000e+00 4.908585e-01 -7.168417e-03
29 1 1.400000e+03 0.000000e+00 0.000000e+00 0.000000e+00 6.652791e-03 -4.535831e-03
30 1 1.450000e+03 0.000000e+00 0.000000e+00 0.000000e+00 2.448998e-03 -5.171877e-03
31 1 1.500000e+03 0.000000e+00 0.000000e+00 0.000000e+00 8.370162e-03 -3.905392e-03
32 1 1.550000e+03 0.000000e+00 0.000000e+00 0.000000e+00 1.263291e-02 -5.308544e-03
33 1 0.000000e+00 5.000000e+01 0.000000e+00 0.000000e+00 2.341908e-01 -4.456039e-03
34 1 5.000000e+01 5.000000e+01 0.000000e+00 0.000000e+00 6.965217e-03 -4.564986e-03
35 1 1.000000e+02 5.000000e+01 0.000000e+00 0.000000e+00 1.073541e-02 -5.759912e-03
36 1 1.500000e+02 5.000000e+01 0.000000e+00 0.000000e+00 1.836785e-03 -5.392369e-03
37 1 2.000000e+02 5.000000e+01 0.000000e+00 0.000000e+00 1.115020e-03 -5.123126e-03
38 1 2.500000e+02 5.000000e+01 0.000000e+00 0.000000e+00 1.322668e-03 -5.622930e-03
39 1 3.000000e+02 5.000000e+01 0.000000e+00 0.000000e+00 6.715263e-03 -4.667570e-03
40 1 3.500000e+02 5.000000e+01 0.000000e+00 0.000000e+00 7.394868e-03 -3.864994e-03
41 1 4.000000e+02 5.000000e+01 0.000000e+00 0.000000e+00 3.365772e-01 -5.451338e-03
42 1 4.500000e+02 5.000000e+01 0.000000e+00 0.000000e+00 4.789564e-01 9.548773e-02
43 1 5.000000e+02 5.000000e+01 0.000000e+00 0.000000e+00 2.441329e-01 -4.412021e-03
44 1 5.500000e+02 5.000000e+01 0.000000e+00 0.000000e+00 1.179792e-02 -6.387972e-03
45 1 6.000000e+02 5.000000e+01 0.000000e+00 0.000000e+00 6.035986e-03 -4.536980e-03
46 1 6.500000e+02 5.000000e+01 0.000000e+00 0.000000e+00 4.984972e-03 -5.984756e-03
47 1 7.000000e+02 5.000000e+01 0.000000e+00 0.000000e+00 2.374546e-01 -4.618197e-03
48 1 7.500000e+02 5.000000e+01 0.000000e+00 0.000000e+00 4.636481e-01 9.307736e-02
49 1 8.000000e+02 5.000000e+01 0.000000e+00 0.000000e+00 5.379566e-01 -5.724274e-03
50 1 8.500000e+02 5.000000e+01 0.000000e+00 0.000000e+00 1.942081e-02 -6.294986e-03
51 1 9.000000e+02 5.000000e+01 0.000000e+00 0.000000e+00 4.523568e-01 -2.876744e-03
52 1 9.500000e+02 5.000000e+01 0.000000e+00 0.000000e+00 2.310466e-01 -6.670923e-03
53 1 1.000000e+03 5.000000e+01 0.000000e+00 0.000000e+00 1.185926e-02 -4.981580e-03
54 1 1.050000e+03 5.000000e+01 0.000000e+00 0.000000e+00 2.981667e-03 -4.160503e-03
55 1 1.100000e+03 5.000000e+01 0.000000e+00 0.000000e+00 2.419829e-03 -5.071346e-03
56 1 1.150000e+03 5.000000e+01 0.000000e+00 0.000000e+00 1.259122e-03 -5.128590e-03
57 1 1.200000e+03 5.000000e+01 0.000000e+00 0.000000e+00 7.486155e-03 -4.686687e-03
58 1 1.250000e+03 5.000000e+01 0.000000e+00 0.000000e+00 2.350213e-01 -4.568340e-03
59 1 1.300000e+03 5.000000e+01 0.000000e+00 0.000000e+00 5.321660e-01 9.334602e-02
60 1 1.350000e+03 5.000000e+01 0.000000e+00 0.000000e+00 5.323479e-01 9.519053e-02
61 1 1.400000e+03 5.000000e+01 0.000000e+00 0.000000e+00 2.410602e-01 -4.018857e-03
62 1 1.450000e+03 5.000000e+01 0.000000e+00 0.000000e+00 6.901497e-03 -5.369230e-03
63 1 1.500000e+03 5.000000e+01 0.000000e+00 0.000000e+00 4.708428e-01 -5.206940e-03
64 1 1.550000e+03 5.000000e+01 0.000000e+00 0.000000e+00 1.494576e-02 -3.652352e-03
65 1 0.000000e+00 1.000000e+02 0.000000e+00 0.000000e+00 6.677525e-01 9.317503e-02
66 1 5.000000e+01 1.000000e+02 0.000000e+00 0.000000e+00 2.344744e-01 -5.067723e-03
67 1 1.000000e+02 1.000000e+02 0.000000e+00 0.000000e+00 3.135596e-03 -4.671139e-03
68 1 1.500000e+02 1.000000e+02 0.000000e+00 0.000000e+00 1.100840e-02 -4.100443e-03
69 1 2.000000e+02 1.000000e+02 0.000000e+00 0.000000e+00 2.388174e-01 -4.418146e-03
70 1 2.500000e+02 1.000000e+02 0.000000e+00 0.000000e+00 4.198992e-03 -4.356527e-03
71 1 3.000000e+02 1.000000e+02 0.000000e+00 0.000000e+00 1.838922e-03 -4.888975e-03
72 1 3.500000e+02 1.000000e+02 0.000000e+00 0.000000e+00 9.727421e-03 -3.645452e-03
73 1 4.000000e+02 1.000000e+02 0.000000e+00 0.000000e+00 6.106903e-03 -5.029366e-03
74 1 4.500000e+02 1.000000e+02 0.000000e+00 0.000000e+00 2.426301e-01 -3.322418e-03
75 1 5.000000e+02 1.000000e+02 0.000000e+00 0.000000e+00 6.450523e-03 -4.772833e-03
76 1 5.500000e+02 1.000000e+02 0.000000e+00 0.000000e+00 6.067945e-03 -3.832221e-03
77 1 6.000000e+02 1.000000e+02 0.000000e+00 0.000000e+00 5.493166e-03 -5.575684e-03
78 1 6.500000e+02 1.000000e+02 0.000000e+00 0.000000e+00 4.131877e-03 -3.348310e-03
79 1 7.000000e+02 1.000000e+02 0.000000e+00 0.000000e+00 4.204441e-03 -3.985235e-03
80 1 7.500000e+02 1.000000e+02 0.000000e+00 0.000000e+00 5.172596e-01 -3.365689e-03
81 1 8.000000e+02 1.000000e+02 0.000000e+00 0.000000e+00 6.499441e-03 -3.926783e-03
82 1 8.500000e+02 1.000000e+02 0.000000e+00 0.000000e+00 8.877898e-03 -4.040710e-03
83 1 9.000000e+02 1.000000e+02 0.000000e+00 0.000000e+00 9.202202e-03 -3.541436e-03
84 1 9.500000e+02 1.000000e+02 0.000000e+00 0.000000e+00 2.385955e-01 -3.802041e-03
85 1 1.000000e+03 1.000000e+02 0.000000e+00 0.000000e+00 7.859669e-03 -5.343685e-03
86 1 1.050000e+03 1.000000e+02 0.000000e+00 0.000000e+00 1.688577e-02 -3.812180e-03
87 1 1.100000e+03 1.000000e+02 0.000000e+00 0.000000e+00 2.866424e-03 -5.059518e-03
88 1 1.150000e+03 1.000000e+02 0.000000e+00 0.000000e+00 3.138235e-03 -4.163986e-03
89 1 1.200000e+03 1.000000e+02 0.000000e+00 0.000000e+00 2.364743e-01 -5.176801e-03
90 1 1.250000e+03 1.000000e+02 0.000000e+00 0.000000e+00 7.117363e-03 -5.555906e-03
91 1 1.300000e+03 1.000000e+02 0.000000e+00 0.000000e+00 2.300892e-01 -6.059405e-03
92 1 1.350000e+03 1.000000e+02 0.000000e+00 0.000000e+00 2.415055e-01 -4.329293e-03
93 1 1.400000e+03 1.000000e+02 0.000000e+00 0.000000e+00 8.474940e-03 -4.884342e-03
94 1 1.450000e+03 1.000000e+02 0.000000e+00 0.000000e+00 4.705427e-01 -4.875011e-03
95 1 1.500000e+03 1.000000e+02 0.000000e+00 0.000000e+00 1.534634e-03 -3.916977e-03
96 1 1.550000e+03 1.000000e+02 0.000000e+00 0.000000e+00 5.320399e-03 -4.928748e-03
97 1 0.000000e+00 1.500000e+02 0.000000e+00 0.000000e+00 2.331917e-01 -4.150509e-03
98 1 5.000000e+01 1.500000e+02 0.000000e+00 0.000000e+00 4.739952e-01 -4.891302e-03
99 1 1.000000e+02 1.500000e+02 0.000000e+00 0.000000e+00 6.548212e-03 -5.044580e-03
100 1 1.500000e+02 1.500000e+02 0.000000e+00 0.000000e+00 5.226395e-01 -4.939246e-03
101 1 2.000000e+02 1.500000e+02 0.000000e+00 0.000000e+00 4.799759e-01 9.453453e-02
102 1 2.500000e+02 1.500000e+02 0.000000e+00 0.000000e+00 2.375306e-01 -4.004476e-03
103 1 3.000000e+02 1.500000e+02 0.000000e+00 0.000000e+00 4.757883e-03 -4.490133e-03
104 1 3.500000e+02 1.500000e+02 0.000000e+00 0.000000e+00 3.591827e-03 -5.462379e-03
105 1 4.000000e+02 1.500000e+02 0.000000e+00 0.000000e+00 1.562802e-02 -3.420415e-03
106 1 4.500000e+02 1.500000e+02 0.000000e+00 0.000000e+00 5.065261e-03 -5.673391e-03
107 1 5.000000e+02 1.500000e+02 0.000000e+00 0.000000e+00 2.334517e-01 -3.818191e-03
108 1 5.500000e+02 1.500000e+02 0.000000e+00 0.000000e+00 1.284552e-02 -5.342922e-03
109 1 6.000000e+02 1.500000e+02 0.000000e+00 0.000000e+00 6.817979e-03 -6.125895e-03
110 1 6.500000e+02 1.500000e+02 0.000000e+00 0.000000e+00 4.828664e-03 -5.820677e-03
111 1 7.000000e+02 1.500000e+02 0.000000e+00 0.000000e+00 8.292946e-03 -6.359808e-03
112 1 7.500000e+02 1.500000e+02 0.000000e+00 0.000000e+00 1.243348e-02 -4.178152e-03
113 1 8.000000e+02 1.500000e+02 0.000000e+00 0.000000e+00 3.325236e-03 -5.980301e-03
114 1 8.500000e+02 1.500000e+02 0.000000e+00 0.000000e+00 1.541559e-02 -2.877606e-03
115 1 9.000000e+02 1.500000e+02 0.000000e+00 0.000000e+00 2.294893e-01 -2.502211e-03
116 1 9.500000e+02 1.500000e+02 0.000000e+00 0.000000e+00 4.638004e-01 9.254730e-02
117 1 1.000000e+03 1.500000e+02 0.000000e+00 0.000000e+00 2.332623e-01 -5.123917e-03
118 1 1.050000e+03 1.500000e+02 0.000000e+00 0.000000e+00 5.389808e-03 -4.792479e-03
119 1 1.100000e+03 1.500000e+02 0.000000e+00 0.000000e+00 3.964433e-03 -5.442905e-03
120 1 1.150000e+03 1.500000e+02 0.000000e+00 0.000000e+00 2.381555e-01 -5.092927e-03
121 1 1.200000e+03 1.500000e+02 0.000000e+00 0.000000e+00 4.741042e-01 9.392056e-02
122 1 1.250000e+03 1.500000e+02 0.000000e+00 0.000000e+00 2.314935e-01 -4.496011e-03
123 1 1.300000e+03 1.500000e+02 0.000000e+00 0.000000e+00 1.931929e-02 -2.629248e-03
124 1 1.350000e+03 1.500000e+02 0.000000e+00 0.000000e+00 1.169303e-02 -5.517449e-03
125 1 1.400000e+03 1.500000e+02 0.000000e+00 0.000000e+00 1.031372e-02 -6.859434e-03
126 1 1.450000e+03 1.500000e+02 0.000000e+00 0.000000e+00 7.589281e-03 -4.511091e-03
127 1 1.500000e+03 1.500000e+02 0.000000e+00 0.000000e+00 3.670594e-03 -5.509603e-03
128 1 1.550000e+03 1.500000e+02 0.000000e+00 0.000000e+00 2.396538e-01 -4.163758e-03
129 1 0.000000e+00 2.000000e+02 0.000000e+00 0.000000e+00 3.018138e-03 -4.117557e-03
130 1 5.000000e+01 2.000000e+02 0.000000e+00 0.000000e+00 4.490726e-03 -3.503102e-03
131 1 1.000000e+02 2.000000e+02 0.000000e+00 0.000000e+00 5.853105e-03 -4.175804e-03
132 1 1.500000e+02 2.000000e+02 0.000000e+00 0.000000e+00 9.117525e-03 -4.873439e-03
133 1 2.000000e+02 2.000000e+02 0.000000e+00 0.000000e+00 2.371171e-01 -3.921659e-03
134 1 2.500000e+02 2.000000e+02 0.000000e+00 0.000000e+00 2.126649e-03 -5.363084e-03
135 1 3.000000e+02 2.000000e+02 0.000000e+00 0.000000e+00 4.711370e-01 -3.573630e-03
136 1 3.500000e+02 2.000000e+02 0.000000e+00 0.000000e+00 8.800643e-03 -3.472289e-03
137 1 4.000000e+02 2.000000e+02 0.000000e+00 0.000000e+00 3.055176e-03 -6.130478e-03
138 1 4.500000e+02 2.000000e+02 0.000000e+00 0.000000e+00 2.366462e-01 -4.269403e-03
139 1 5.000000e+02 2.000000e+02 0.000000e+00 0.000000e+00 4.659012e-01 9.261629e-02
140 1 5.500000e+02 2.000000e+02 0.000000e+00 0.000000e+00 2.310980e-01 -4.574281e-03
141 1 6.000000e+02 2.000000e+02 0.000000e+00 0.000000e+00 8.923044e-03 -3.807960e-03
142 1 6.500000e+02 2.000000e+02 0.000000e+00 0.000000e+00 8.537397e-03 -3.325943e-03
143 1 7.000000e+02 2.000000e+02 0.000000e+00 0.000000e+00 1.126382e-02 -5.925168e-03
144 1 7.500000e+02 2.000000e+02 0.000000e+00 0.000000e+00 1.138184e-02 -7.250999e-03
145 1 8.000000e+02 2.000000e+02 0.000000e+00 0.000000e+00 1.208860e-02 -4.254142e-03
146 1 8.500000e+02 2.000000e+02 0.000000e+00 0.000000e+00 7.343185e-03 -5.317281e-03
147 1 9.000000e+02 2.000000e+02 0.000000e+00 0.000000e+00 6.383937e-03 -6.069561e-03
148 1 9.500000e+02 2.000000e+02 0.000000e+00 0.000000e+00 2.327978e-01 -6.616692e-03
149 1 1.000000e+03 2.000000e+02 0.000000e+00 0.000000e+00 5.885749e-03 -5.171888e-03
150 1 1.050000e+03 2.000000e+02 0.000000e+00 0.000000e+00 2.566984e-03 -5.720099e-03
151 1 1.100000e+03 2.000000e+02 0.000000e+00 0.000000e+00 4.921721e-03 -4.738353e-03
152 1 1.150000e+03 2.000000e+02 0.000000e+00 0.000000e+00 6.155985e-03 -4.665402e-03
153 1 1.200000e+03 2.000000e+02 0.000000e+00 0.000000e+00 2.393506e-01 -6.072765e-03
154 1 1.250000e+03 2.000000e+02 0.000000e+00 0.000000e+00 1.347483e-02 -2.863475e-03
155 1 1.300000e+03 2.000000e+02 0.000000e+00 0.000000e+00 6.770665e-03 -4.035613e-03
156 1 1.350000e+03 2.000000e+02 0.000000e+00 0.000000e+00 4.723582e-01 -3.964609e-03
157 1 1.400000e+03 2.000000e+02 0.000000e+00 0.000000e+00 8.912496e-03 -3.373167e-03
158 1 1.450000e+03 2.000000e+02 0.000000e+00 0.000000e+00 4.853134e-03 -3.868335e-03
159 1 1.500000e+03 2.000000e+02 0.000000e+00 0.000000e+00 2.368390e-01 -5.387211e-03
160 1 1.550000e+03 2.000000e+02 0.000000e+00 0.000000e+00 7.175705e-01 9.496229e-02
161 1 0.000000e+00 2.500000e+02 0.000000e+00 0.000000e+00 2.313858e-01 -4.369390e-03
162 1 5.000000e+01 2.500000e+02 0.000000e+00 0.000000e+00 1.825099e-02 -3.025140e-03
163 1 1.000000e+02 2.500000e+02 0.000000e+00 0.000000e+00 8.884881e-03 -5.900326e-03
164 1 1.500000e+02 2.500000e+02 0.000000e+00 0.000000e+00 2.243951e-02 -1.948469e-03
165 1 2.000000e+02 2.500000e+02 0.000000e+00 0.000000e+00 7.363687e-03 -4.402763e-03
166 1 2.500000e+02 2.500000e+02 0.000000e+00 0.000000e+00 3.739094e-03 -4.237674e-03
167 1 3.000000e+02 2.500000e+02 0.000000e+00 0.000000e+00 6.046257e-03 -4.407055e-03
168 1 3.500000e+02 2.500000e+02 0.000000e+00 0.000000e+00 8.173691e-03 -4.985615e-03
169 1 4.000000e+02 2.500000e+02 0.000000e+00 0.000000e+00 4.516559e-03 -4.415512e-03
170 1 4.500000e+02 2.500000e+02 0.000000e+00 0.000000e+00 1.955224e-03 -5.011411e-03
171 1 5.000000e+02 2.500000e+02 0.000000e+00 0.000000e+00 2.353667e-01 -4.570733e-03
172 1 5.500000e+02 2.500000e+02 0.000000e+00 0.000000e+00 1.055807e-02 -4.442253e-03
173 1 6.000000e+02 2.500000e+02 0.000000e+00 0.000000e+00 3.648335e-03 -4.795814e-03
174 1 6.500000e+02 2.500000e+02 0.000000e+00 0.000000e+00 4.684310e-01 -3.063200e-03
175 1 7.000000e+02 2.500000e+02 0.000000e+00 0.000000e+00 8.661200e-03 -3.926377e-03
176 1 7.500000e+02 2.500000e+02 0.000000e+00 0.000000e+00 1.362939e-02 -4.686687e-03
177 1 8.000000e+02 2.500000e+02 0.000000e+00 0.000000e+00 1.056108e-02 -2.106810e-03
178 1 8.500000e+02 2.500000e+02 0.000000e+00 0.000000e+00 7.991564e-03 -5.138099e-03
179 1 9.000000e+02 2.500000e+02 0.000000e+00 0.000000e+00 5.170233e-03 -4.822548e-03
180 1 9.500000e+02 2.500000e+02 0.000000e+00 0.000000e+00 9.718802e-03 -4.594725e-03
181 1 1.000000e+03 2.500000e+02 0.000000e+00 0.000000e+00 3.203200e-03 -4.854121e-03
182 1 1.050000e+03 2.500000e+02 0.000000e+00 0.000000e+00 3.659282e-03 -5.729799e-03
183 1 1.100000e+03 2.500000e+02 0.000000e+00 0.000000e+00 4.805354e-03 -4.454239e-03
184 1 1.150000e+03 2.500000e+02 0.000000e+00 0.000000e+00 6.414156e-03 -3.848043e-03
185 1 1.200000e+03 2.500000e+02 0.000000e+00 0.000000e+00 4.807454e-01 -5.896377e-03
186 1 1.250000e+03 2.500000e+02 0.000000e+00 0.000000e+00 9.651876e-03 -5.117927e-03
187 1 1.300000e+03 2.500000e+02 0.000000e+00 0.000000e+00 3.159163e-03 -5.177541e-03
188 1 1.350000e+03 2.500000e+02 0.000000e+00 0.000000e+00 8.273872e-03 -6.135356e-03
189 1 1.400000e+03 2.500000e+02 0.000000e+00 0.000000e+00 5.517319e-03 -4.676591e-03
190 1 1.450000e+03 2.500000e+02 0.000000e+00 0.000000e+00 7.652891e-03 -4.324898e-03
191 1 1.500000e+03 2.500000e+02 0.000000e+00 0.000000e+00 2.339652e-01 -6.191572e-03
192 1 1.550000e+03 2.500000e+02 0.000000e+00 0.000000e+00 6.721151e-01 9.330133e-02
193 1 0.000000e+00 3.000000e+02 0.000000e+00 0.000000e+00 6.677466e-01 9.237817e-02
194 1 5.000000e+01 3.000000e+02 0.000000e+00 0.000000e+00 2.321117e-01 -6.478633e-03
195 1 1.000000e+02 3.000000e+02 0.000000e+00 0.000000e+00 5.534822e-03 -4.375142e-03
196 1 1.500000e+02 3.000000e+02 0.000000e+00 0.000000e+00 7.843099e-03 -4.674965e-03
197 1 2.000000e+02 3.000000e+02 0.000000e+00 0.000000e+00 2.250264e-03 -5.528065e-03
198 1 2.500000e+02 3.000000e+02 0.000000e+00 0.000000e+00 2.336164e-01 -4.555135e-03
199 1 3.000000e+02 3.000000e+02 0.000000e+00 0.000000e+00 2.562744e-03 -5.723303e-03
200 1 3.500000e+02 3.000000e+02 0.000000e+00 0.000000e+00 6.768910e-03 -5.443132e-03
201 1 4.000000e+02 3.000000e+02 0.000000e+00 0.000000e+00 8.288440e-03 -4.251608e-03
202 1 4.500000e+02 3.000000e+02 0.000000e+00 0.000000e+00 6.858140e-03 -4.104819e-03
203 1 5.000000e+02 3.000000e+02 0.000000e+00 0.000000e+00 9.580341e-03 -5.589805e-03
204 1 5.500000e+02 3.000000e+02 0.000000e+00 0.000000e+00 1.256976e-02 -3.689030e-03
205 1 6.000000e+02 3.000000e+02 0.000000e+00 0.000000e+00 7.703523e-03 -3.700424e-03
206 1 6.500000e+02 3.000000e+02 0.000000e+00 0.000000e+00 6.741544e-03 -5.605739e-03
207 1 7.000000e+02 3.000000e+02 0.000000e+00 0.000000e+00 9.060068e-03 -4.272549e-03
208 1 7.500000e+02 3.000000e+02 0.000000e+00 0.000000e+00 1.738677e-02 -2.305722e-03
209 1 8.000000e+02 3.000000e+02 0.000000e+00 0.000000e+00 1.190265e-02 -5.460349e-03
210 1 8.500000e+02 3.000000e+02 0.000000e+00 0.000000e+00 1.059601e-03 -4.063652e-03
211 1 9.000000e+02 3.000000e+02 0.000000e+00 0.000000e+00 6.098799e-03 -5.824441e-03
212 1 9.500000e+02 3.000000e+02 0.000000e+00 0.000000e+00 1.508240e-02 -4.935474e-03
213 1 1.000000e+03 3.000000e+02 0.000000e+00 0.000000e+00 6.654636e-03 -5.516813e-03
214 1 1.050000e+03 3.000000e+02 0.000000e+00 0.000000e+00 8.679908e-03 -4.619461e-03
215 1 1.100000e+03 3.000000e+02 0.000000e+00 0.000000e+00 6.792058e-03 -5.424115e-03
216 1 1.150000e+03 3.000000e+02 0.000000e+00 0.000000e+00 2.807315e-03 -3.196368e-03
217 1 1.200000e+03 3.000000e+02 0.000000e+00 0.000000e+00 7.913312e-03 -5.245944e-03
218 1 1.250000e+03 3.000000e+02 0.000000e+00 0.000000e+00 4.618887e-03 -4.412219e-03
219 1 1.300000e+03 3.000000e+02 0.000000e+00 0.000000e+00 5.327222e-01 -4.872988e-03
220 1 1.350000e+03 3.000000e+02 0.000000e+00 0.000000e+00 1.234254e-02 -5.670342e-03
221 1 1.400000e+03 3.000000e+02 0.000000e+00 0.000000e+00 2.392475e-01 -3.431390e-03
222 1 1.450000e+03 3.000000e+02 0.000000e+00 0.000000e+00 2.319684e-01 -5.882410e-03
223 1 1.500000e+03 3.000000e+02 0.000000e+00 0.000000e+00 2.361592e-01 -4.399048e-03
224 1 1.550000e+03 3.000000e+02 0.000000e+00 0.000000e+00 6.983752e-01 9.263504e-02
225 1 0.000000e+00 3.500000e+02 0.000000e+00 0.000000e+00 2.345139e-01 -5.403421e-03
226 1 5.000000e+01 3.500000e+02 0.000000e+00 0.000000e+00 5.008752e-03 -4.355207e-03
227 1 1.000000e+02 3.500000e+02 0.000000e+00 0.000000e+00 1.593740e-03 -4.758554e-03
228 1 1.500000e+02 3.500000e+02 0.000000e+00 0.000000e+00 2.385156e-01 -4.994702e-03
229 1 2.000000e+02 3.500000e+02 0.000000e+00 0.000000e+00 2.353833e-01 -5.333045e-03
230 1 2.500000e+02 3.500000e+02 0.000000e+00 0.000000e+00 4.675950e-01 9.321975e-02
231 1 3.000000e+02 3.500000e+02 0.000000e+00 0.000000e+00 2.367876e-01 -4.139500e-03
232 1 3.500000e+02 3.500000e+02 0.000000e+00 0.000000e+00 2.948762e-03 -5.507583e-03
233 1 4.000000e+02 3.500000e+02 0.000000e+00 0.000000e+00 8.952281e-03 -3.713912e-03
234 1 4.500000e+02 3.500000e+02 0.000000e+00 0.000000e+00 1.017235e-02 -7.523975e-03
235 1 5.000000e+02 3.500000e+02 0.000000e+00 0.000000e+00 1.467549e-02 -5.352883e-03
236 1 5.500000e+02 3.500000e+02 0.000000e+00 0.000000e+00 3.705179e-03 -4.306409e-03
237 1 6.000000e+02 3.500000e+02 0.000000e+00 0.000000e+00 6.428217e-03 -5.962330e-03
238 1 6.500000e+02 3.500000e+02 0.000000e+00 0.000000e+00 1.499206e-02 -3.077214e-03
239 1 7.000000e+02 3.500000e+02 0.000000e+00 0.000000e+00 5.449985e-03 -5.752853e-03
240 1 7.500000e+02 3.500000e+02 0.000000e+00 0.000000e+00 5.965024e-03 -4.976928e-03
241 1 8.000000e+02 3.500000e+02 0.000000e+00 0.000000e+00 9.592150e-03 -6.195495e-03
242 1 8.500000e+02 3.500000e+02 0.000000e+00 0.000000e+00 7.226576e-03 -4.906409e-03
243 1 9.000000e+02 3.500000e+02 0.000000e+00 0.000000e+00 4.815977e-01 -6.656229e-03
244 1 9.500000e+02 3.500000e+02 0.000000e+00 0.000000e+00 3.642717e-03 -5.050418e-03
245 1 1.000000e+03 3.500000e+02 0.000000e+00 0.000000e+00 9.483176e-03 -6.515030e-03
246 1 1.050000e+03 3.500000e+02 0.000000e+00 0.000000e+00 1.522823e-02 -2.799559e-03
247 1 1.100000e+03 3.500000e+02 0.000000e+00 0.000000e+00 8.632297e-03 -5.433334e-03
248 1 1.150000e+03 3.500000e+02 0.000000e+00 0.000000e+00 1.133300e-02 -4.747906e-03
249 1 1.200000e+03 3.500000e+02 0.000000e+00 0.000000e+00 3.050968e-03 -3.596343e-03
250 1 1.250000e+03 3.500000e+02 0.000000e+00 0.000000e+00 2.350916e-01 -4.130521e-03
251 1 1.300000e+03 3.500000e+02 0.000000e+00 0.000000e+00 4.694620e-01 9.447100e-02
252 1 1.350000e+03 3.500000e+02 0.000000e+00 0.000000e+00 4.150964e-03 -3.939165e-03
253 1 1.400000e+03 3.500000e+02 0.000000e+00 0.000000e+00 5.320965e-01 9.506744e-02
254 1 1.450000e+03 3.500000e+02 0.000000e+00 0.000000e+00 5.241841e-01 9.246979e-02
255 1 1.500000e+03 3.500000e+02 0.000000e+00 0.000000e+00 2.321168e-01 -4.603152e-03
256 1 1.550000e+03 3.500000e+02 0.000000e+00 0.000000e+00 2.366864e-01 -4.355526e-03
257 1 0.000000e+00 4.000000e+02 0.000000e+00 0.000000e+00 4.288021e-03 -5.448915e-03
258 1 5.000000e+01 4.000000e+02 0.000000e+00 0.000000e+00 1.103871e-02 -6.290851e-03
259 1 1.000000e+02 4.000000e+02 0.000000e+00 0.000000e+00 2.424058e-01 -4.550718e-03
260 1 1.500000e+02 4.000000e+02 0.000000e+00 0.000000e+00 4.809813e-01 9.485020e-02
261 1 2.000000e+02 4.000000e+02 0.000000e+00 0.000000e+00 2.358088e-01 -4.345472e-03
262 1 2.500000e+02 4.000000e+02 0.000000e+00 0.000000e+00 2.349369e-01 -3.551035e-03
263 1 3.000000e+02 4.000000e+02 0.000000e+00 0.000000e+00 1.005816e-02 -5.384482e-03
264 1 3.500000e+02 4.000000e+02 0.000000e+00 0.000000e+00 2.570331e-03 -4.964197e-03
265 1 4.000000e+02 4.000000e+02 0.000000e+00 0.000000e+00 6.020894e-03 -5.498402e-03
266 1 4.500000e+02 4.000000e+02 0.000000e+00 0.000000e+00 4.800663e-01 -5.591187e-03
267 1 5.000000e+02 4.000000e+02 0.000000e+00 0.000000e+00 9.490126e-03 -4.499283e-03
268 1 5.500000e+02 4.000000e+02 0.000000e+00 0.000000e+00 8.774081e-03 -2.444051e-03
269 1 6.000000e+02 4.000000e+02 0.000000e+00 0.000000e+00 1.407515e-02 -4.290570e-03
270 1 6.500000e+02 4.000000e+02 0.000000e+00 0.000000e+00 6.595785e-03 -5.179785e-03
271 1 7.000000e+02 4.000000e+02 0.000000e+00 0.000000e+00 2.546564e-03 -5.040877e-03
272 1 7.500000e+02 4.000000e+02 0.000000e+00 0.000000e+00 2.339181e-01 -4.706675e-03
273 1 8.000000e+02 4.000000e+02 0.000000e+00 0.000000e+00 7.840075e-03 -4.132815e-03
274 1 8.500000e+02 4.000000e+02 0.000000e+00 0.000000e+00 1.260636e-02 -5.965406e-03
275 1 9.000000e+02 4.000000e+02 0.000000e+00 0.000000e+00 4.030085e-03 -5.282880e-03
276 1 9.500000e+02 4.000000e+02 0.000000e+00 0.000000e+00 1.129857e-02 -6.448761e-03
277 1 1.000000e+03 4.000000e+02 0.000000e+00 0.000000e+00 8.626889e-03 -3.250370e-03
278 1 1.050000e+03 4.000000e+02 0.000000e+00 0.000000e+00 1.255732e-02 -5.283616e-03
279 1 1.100000e+03 4.000000e+02 0.000000e+00 0.000000e+00 4.256195e-03 -5.418491e-03
280 1 1.150000e+03 4.000000e+02 0.000000e+00 0.000000e+00 3.231532e-03 -4.914801e-03
281 1 1.200000e+03 4.000000e+02 0.000000e+00 0.000000e+00 9.041251e-03 -5.158683e-03
282 1 1.250000e+03 4.000000e+02 0.000000e+00 0.000000e+00 6.037557e-03 -3.647045e-03
283 1 1.300000e+03 4.000000e+02 0.000000e+00 0.000000e+00 5.246717e-01 -3.348047e-03
284 1 1.350000e+03 4.000000e+02 0.000000e+00 0.000000e+00 2.324155e-01 -4.369635e-03
285 1 1.400000e+03 4.000000e+02 0.000000e+00 0.000000e+00 2.362448e-01 -5.863661e-03
286 1 1.450000e+03 4.000000e+02 0.000000e+00 0.000000e+00 2.318677e-01 -4.530841e-03
287 1 1.500000e+03 4.000000e+02 0.000000e+00 0.000000e+00 1.041352e-02 -3.359376e-03
288 1 1.550000e+03 4.000000e+02 0.000000e+00 0.000000e+00 1.848477e-02 -6.121603e-03
289 1 0.000000e+00 4.500000e+02 0.000000e+00 0.000000e+00 2.045199e-03 -5.620137e-03
290 1 5.000000e+01 4.500000e+02 0.000000e+00 0.000000e+00 5.356667e-03 -5.675414e-03
291 1 1.000000e+02 4.500000e+02 0.000000e+00 0.000000e+00 1.649763e-03 -5.224955e-03
292 1 1.500000e+02 4.500000e+02 0.000000e+00 0.000000e+00 2.399578e-01 -6.297599e-03
293 1 2.000000e+02 4.500000e+02 0.000000e+00 0.000000e+00 6.351333e-03 -5.803587e-03
294 1 2.500000e+02 4.500000e+02 0.000000e+00 0.000000e+00 3.285109e-03 -4.611016e-03
295 1 3.000000e+02 4.500000e+02 0.000000e+00 0.000000e+00 1.198112e-02 -6.116609e-03
296 1 3.500000e+02 4.500000e+02 0.000000e+00 0.000000e+00 7.651023e-03 -4.539681e-03
297 1 4.000000e+02 4.500000e+02 0.000000e+00 0.000000e+00 4.862246e-03 -4.788648e-03
298 1 4.500000e+02 4.500000e+02 0.000000e+00 0.000000e+00 9.593435e-03 -4.321546e-03
299 1 5.000000e+02 4.500000e+02 0.000000e+00 0.000000e+00 6.097021e-03 -5.789315e-03
300 1 5.500000e+02 4.500000e+02 0.000000e+00 0.000000e+00 7.189640e-03 -4.704291e-03
301 1 6.000000e+02 4.500000e+02 0.000000e+00 0.000000e+00 4.739302e-03 -4.746192e-03
302 1 6.500000e+02 4.500000e+02 0.000000e+00 0.000000e+00 7.223708e-03 -5.288837e-03
303 1 7.000000e+02 4.500000e+02 0.000000e+00 0.000000e+00 5.278389e-01 -4.803113e-03
304 1 7.500000e+02 4.500000e+02 0.000000e+00 0.000000e+00 4.670962e-01 9.263119e-02
305 1 8.000000e+02 4.500000e+02 0.000000e+00 0.000000e+00 2.326796e-01 -3.669601e-03
306 1 8.500000e+02 4.500000e+02 0.000000e+00 0.000000e+00 9.815641e-03 -4.433730e-03
307 1 9.000000e+02 4.500000e+02 0.000000e+00 0.000000e+00 1.307894e-03 -5.169456e-03
308 1 9.500000e+02 4.500000e+02 0.000000e+00 0.000000e+00 5.704633e-03 -4.148471e-03
309 1 1.000000e+03 4.500000e+02 0.000000e+00 0.000000e+00 4.710828e-01 -5.266217e-03
310 1 1.050000e+03 4.500000e+02 0.000000e+00 0.000000e+00 6.530323e-03 -5.408560e-03
311 1 1.100000e+03 4.500000e+02 0.000000e+00 0.000000e+00 5.270030e-03 -3.777404e-03
312 1 1.150000e+03 4.500000e+02 0.000000e+00 0.000000e+00 4.630936e-03 -4.762081e-03
313 1 1.200000e+03 4.500000e+02 0.000000e+00 0.000000e+00 1.005979e-02 -3.977401e-03
314 1 1.250000e+03 4.500000e+02 0.000000e+00 0.000000e+00 1.241197e-02 -5.469243e-03
315 1 1.300000e+03 4.500000e+02 0.000000e+00 0.000000e+00 2.360347e-01 -5.357346e-03
316 1 1.350000e+03 4.500000e+02 0.000000e+00 0.000000e+00 4.808912e-01 9.298796e-02
317 1 1.400000e+03 4.500000e+02 0.000000e+00 0.000000e+00 2.331608e-01 -3.492874e-03
318 1 1.450000e+03 4.500000e+02 0.000000e+00 0.000000e+00 4.251267e-03 -4.232449e-03
319 1 1.500000e+03 4.500000e+02 0.000000e+00 0.000000e+00 1.021029e-02 -3.961296e-03
320 1 1.550000e+03 4.500000e+02 0.000000e+00 0.000000e+00 6.566893e-03 -5.019898e-03
321 1 0.000000e+00 5.000000e+02 0.000000e+00 0.000000e+00 5.879108e-03 -5.769426e-03
322 1 5.000000e+01 5.000000e+02 0.000000e+00 0.000000e+00 3.756710e-03 -5.522524e-03
323 1 1.000000e+02 5.000000e+02 0.000000e+00 0.000000e+00 6.820414e-03 -4.829784e-03
324 1 1.500000e+02 5.000000e+02 0.000000e+00 0.000000e+00 1.440377e-02 -5.277626e-03
325 1 2.000000e+02 5.000000e+02 0.000000e+00 0.000000e+00 4.671335e-01 -4.219928e-03
326 1 2.500000e+02 5.000000e+02 0.000000e+00 0.000000e+00 7.136098e-03 -4.646280e-03
327 1 3.000000e+02 5.000000e+02 0.000000e+00 0.000000e+00 1.222379e-02 -5.878616e-03
328 1 3.500000e+02 5.000000e+02 0.000000e+00 0.000000e+00 2.347980e-01 -2.061392e-03
329 1 4.000000e+02 5.000000e+02 0.000000e+00 0.000000e+00 1.689153e-02 -6.530866e-03
330 1 4.500000e+02 5.000000e+02 0.000000e+00 0.000000e+00 1.467819e-02 -6.295120e-03
331 1 5.000000e+02 5.000000e+02 0.000000e+00 0.000000e+00 9.367048e-03 -6.322448e-03
332 1 5.500000e+02 5.000000e+02 0.000000e+00 0.000000e+00 9.624847e-03 -5.255297e-03
333 1 6.000000e+02 5.000000e+02 0.000000e+00 0.000000e+00 6.242730e-03 -3.842229e-03
334 1 6.500000e+02 5.000000e+02 0.000000e+00 0.000000e+00 6.248861e-03 -5.350849e-03
335 1 7.000000e+02 5.000000e+02 0.000000e+00 0.000000e+00 1.047014e-02 -5.841127e-03
336 1 7.500000e+02 5.000000e+02 0.000000e+00 0.000000e+00 2.334343e-01 -4.807117e-03
337 1 8.000000e+02 5.000000e+02 0.000000e+00 0.000000e+00 2.342313e-01 -3.992432e-03
338 1 8.500000e+02 5.000000e+02 0.000000e+00 0.000000e+00 1.062814e-02 -2.801248e-03
339 1 9.000000e+02 5.000000e+02 0.000000e+00 0.000000e+00 8.170308e-03 -5.486009e-03
340 1 9.500000e+02 5.000000e+02 0.000000e+00 0.000000e+00 3.127124e-03 -5.849398e-03
341 1 1.000000e+03 5.000000e+02 0.000000e+00 0.000000e+00 7.617914e-03 -6.366270e-03
342 1 1.050000e+03 5.000000e+02 0.000000e+00 0.000000e+00 7.206196e-03 -3.100019e-03
343 1 1.100000e+03 5.000000e+02 0.000000e+00 0.000000e+00 5.494532e-03 -4.557979e-03
344 1 1.150000e+03 5.000000e+02 0.000000e+00 0.000000e+00 6.364868e-03 -5.275371e-03
345 1 1.200000e+03 5.000000e+02 0.000000e+00 0.000000e+00 7.121383e-03 -4.596727e-03
346 1 1.250000e+03 5.000000e+02 0.000000e+00 0.000000e+00 2.830804e-03 -5.476920e-03
347 1 1.300000e+03 5.000000e+02 0.000000e+00 0.000000e+00 7.983670e-03 -5.058244e-03
348 1 1.350000e+03 5.000000e+02 0.000000e+00 0.000000e+00 5.119884e-01 -2.489338e-03
349 1 1.400000e+03 5.000000e+02 0.000000e+00 0.000000e+00 1.031103e-02 -5.241151e-03
350 1 1.450000e+03 5.000000e+02 0.000000e+00 0.000000e+00 3.009433e-03 -6.202774e-03
351 1 1.500000e+03 5.000000e+02 0.000000e+00 0.000000e+00 5.934698e-03 -5.569449e-03
352 1 1.550000e+03 5.000000e+02 0.000000e+00 0.000000e+00 9.767862e-03 -4.458815e-03