ITEM: TIMESTEP
6
ITEM: NUMBER OF ATOMS
16384
ITEM: BOX BOUNDS pp pp pp
0.0 1.600000e-05
0.0 1.600000e-05
0.0 8.000000e-06
ITEM: ATOMS id type x y z crack plastic psi
1 1 0.000000e+00 0.000000e+00 0.000000e+00 1.244591e-01 5.488764e-01 -1.000366e+00
2 1 5.000000e-07 0.000000e+00 0.000000e+00 1.244591e-01 6.220499e-01 9.996338e-01
3 1 1.000000e-06 0.000000e+00 0.000000e+00 1.244591e-01 5.706859e-01 -1.000366e+00
4 1 1.500000e-06 0.000000e+00 0.000000e+00 1.244591e-01 5.521407e-01 9.996338e-01
5 1 2.000000e-06 0.000000e+00 0.000000e+00 1.244591e-01 5.520237e-01 -1.000366e+00
6 1 2.500000e-06 0.000000e+00 0.000000e+00 1.244591e-01 5.427704e-01 9.996338e-01
7 1 3.000000e-06 0.000000e+00 0.000000e+00 1.244591e-01 5.604737e-01 -1.000366e+00
8 1 3.500000e-06 0.000000e+00 0.000000e+00 1.244591e-01 5.604194e-01 9.996338e-01
9 1 4.000000e-06 0.000000e+00 0.000000e+00 1.244591e-01 5.603702e-01 -1.000366e+00
10 1 4.500000e-06 0.000000e+00 0.000000e+00 1.244591e-01 5.325868e-01 9.996338e-01
11 1 5.000000e-06 0.000000e+00 0.000000e+00 1.244591e-01 5.497744e-01 -1.000366e+00
12 1 5.500000e-06 0.000000e+00 0.000000e+00 1.244591e-01 5.293564e-01 9.996338e-01
13 1 6.000000e-06 0.000000e+00 0.000000e+00 1.244591e-01 5.290208e-01 -1.000366e+00
14 1 6.500000e-06 0.000000e+00 0.000000e+00 1.244591e-01 5.603695e-01 9.996338e-01
15 1 7.000000e-06 0.000000e+00 0.000000e+00 1.244591e-01 5.900220e-01 -1.000366e+00
16 1 7.500000e-06 0.000000e+00 0.000000e+00 1.244591e-01 5.885704e-01 9.996338e-01
17 1 8.000000e-06 0.000000e+00 0.000000e+00 1.244591e-01 5.695339e-01 9.996338e-01
18 1 8.500000e-06 0.000000e+00 0.000000e+00 1.244591e-01 5.661426e-01 -1.000366e+00
19 1 9.000000e-06 0.000000e+00 0.000000e+00 1.244591e-01 5.565311e-01 9.996338e-01
20 1 9.500000e-06 0.000000e+00 0.000000e+00 1.244591e-01 5.479403e-01 -1.000366e+00
21 1 1.000000e-05 0.000000e+00 0.000000e+00 1.244591e-01 5.848076e-01 9.996338e-01
22 1 1.050000e-05 0.000000e+00 0.000000e+00 1.244591e-01 5.666758e-01 -1.000366e+00
23 1 1.100000e-05 0.000000e+00 0.000000e+00 1.244591e-01 5.951936e-01 9.996338e-01
24 1 1.150000e-05 0.000000e+00 0.000000e+00 1.244591e-01 5.952982e-01 -1.000366e+00
25 1 1.200000e-05 0.000000e+00 0.000000e+00 1.244591e-01 5.657777e-01 9.996338e-01
26 1 1.250000e-05 0.000000e+00 0.000000e+00 1.244591e-01 5.580922e-01 -1.000366e+00
27 1 1.300000e-05 0.000000e+00 0.000000e+00 1.244591e-01 5.727292e-01 9.996338e-01
28 1 1.350000e-05 0.000000e+00 0.000000e+00 1.244591e-01 5.623244e-01 -1.000366e+00
29 1 1.400000e-05 0.000000e+00 0.000000e+00 1.244591e-01 5.544069e-01 9.996338e-01
30 1 1.450000e-05 0.000000e+00 0.000000e+00 1.244591e-01 5.519689e-01 -1.000366e+00
31 1 1.500000e-05 0.000000e+00 0.000000e+00 1.244591e-01 5.621215e-01 9.996338e-01
32 1 1.550000e-05 0.000000e+00 0.000000e+00 1.244591e-01 6.863756e-01 -1.000366e+00
33 1 0.000000e+00 5.000000e-07 0.000000e+00 1.244591e-01 3.615927e-01 9.996338e-01
34 1 5.000000e-07 5.000000e-07 0.000000e+00 1.244591e-01 4.171010e-01 -1.000366e+00
35 1 1.000000e-06 5.000000e-07 0.000000e+00 1.244591e-01 3.538312e-01 9.996338e-01
36 1 1.500000e-06 5.000000e-07 0.000000e+00 1.244591e-01 3.637655e-01 -1.000366e+00
37 1 2.000000e-06 5.000000e-07 0.000000e+00 1.244591e-01 3.625273e-01 9.996338e-01
38 1 2.500000e-06 5.000000e-07 0.000000e+00 1.244591e-01 3.737142e-01 -1.000366e+00
39 1 3.000000e-06 5.000000e-07 0.000000e+00 1.244591e-01 3.501682e-01 9.996338e-01
40 1 3.500000e-06 5.000000e-07 0.000000e+00 1.244591e-01 3.761497e-01 -1.000366e+00
41 1 4.000000e-06 5.000000e-07 0.000000e+00 1.244591e-01 3.779479e-01 9.996338e-01
42 1 4.500000e-06 5.000000e-07 0.000000e+00 1.244591e-01 3.668080e-01 -1.000366e+00
43 1 5.000000e-06 5.000000e-07 0.000000e+00 1.244591e-01 3.419618e-01 9.996338e-01
44 1 5.500000e-06 5.000000e-07 0.000000e+00 1.244591e-01 2.975385e-01 -1.000366e+00
45 1 6.000000e-06 5.000000e-07 0.000000e+00 1.244591e-01 3.374601e-01 9.996338e-01
46 1 6.500000e-06 5.000000e-07 0.000000e+00 1.244591e-01 4.066052e-01 -1.000366e+00
47 1 7.000000e-06 5.000000e-07 0.000000e+00 1.244591e-01 4.170164e-01 9.996338e-01
48 1 7.500000e-06 5.000000e-07 0.000000e+00 1.244591e-01 4.834818e-01 -1.000366e+00
49 1 8.000000e-06 5.000000e-07 0.000000e+00 1.244591e-01 4.194754e-01 -1.000366e+00
50 1 8.500000e-06 5.000000e-07 0.000000e+00 1.244591e-01 4.014741e-01 9.996338e-01
51 1 9.000000e-06 5.000000e-07 0.000000e+00 1.244591e-01 3.763471e-01 -1.000366e+00
52 1 9.500000e-06 5.000000e-07 0.000000e+00 1.244591e-01 4.037971e-01 9.996338e-01
53 1 1.000000e-05 5.000000e-07 0.000000e+00 1.244591e-01 3.739787e-01 -1.000366e+00
54 1 1.050000e-05 5.000000e-07 0.000000e+00 1.244591e-01 4.033801e-01 9.996338e-01
55 1 1.100000e-05 5.000000e-07 0.000000e+00 1.244591e-01 4.116280e-01 -1.000366e+00
56 1 1.150000e-05 5.000000e-07 0.000000e+00 1.244591e-01 3.853537e-01 9.996338e-01
57 1 1.200000e-05 5.000000e-07 0.000000e+00 1.244591e-01 3.567168e-01 -1.000366e+00
58 1 1.250000e-05 5.000000e-07 0.000000e+00 1.244591e-01 3.942477e-01 9.996338e-01
59 1 1.300000e-05 5.000000e-07 0.000000e+00 1.244591e-01 4.145152e-01 -1.000366e+00
60 1 1.350000e-05 5.000000e-07 0.000000e+00 1.244591e-01 3.965033e-01 9.996338e-01
61 1 1.400000e-05 5.000000e-07 0.000000e+00 1.244591e-01 3.862236e-01 -1.000366e+00
62 1 1.450000e-05 5.000000e-07 0.000000e+00 1.244591e-01 3.965534e-01 9.996338e-01
63 1 1.500000e-05 5.000000e-07 0.000000e+00 1.244591e-01 4.194020e-01 -1.000366e+00
64 1 1.550000e-05 5.000000e-07 0.000000e+00 1.244591e-01 5.604914e-01 9.996338e-01
65 1 0.000000e+00 1.000000e-06 0.000000e+00 1.244591e-01 4.251621e-01 -1.000366e+00
66 1 5.000000e-07 1.000000e-06 0.000000e+00 1.244591e-01 4.536276e-01 9.996338e-01
67 1 1.000000e-06 1.000000e-06 0.000000e+00 1.244591e-01 3.633816e-01 -1.000366e+00
68 1 1.500000e-06 1.000000e-06 0.000000e+00 1.244591e-01 3.538352e-01 9.996338e-01
69 1 2.000000e-06 1.000000e-06 0.000000e+00 1.244591e-01 3.493626e-01 -1.000366e+00
70 1 2.500000e-06 1.000000e-06 0.000000e+00 1.244591e-01 3.501311e-01 9.996338e-01
71 1 3.000000e-06 1.000000e-06 0.000000e+00 1.244591e-01 3.288470e-01 -1.000366e+00
72 1 3.500000e-06 1.000000e-06 0.000000e+00 1.244591e-01 3.779991e-01 9.996338e-01
73 1 4.000000e-06 1.000000e-06 0.000000e+00 1.244591e-01 4.151165e-01 -1.000366e+00
74 1 4.500000e-06 1.000000e-06 0.000000e+00 1.244591e-01 4.540745e-01 9.996338e-01
75 1 5.000000e-06 1.000000e-06 0.000000e+00 1.244591e-01 4.444432e-01 -1.000366e+00
76 1 5.500000e-06 1.000000e-06 0.000000e+00 1.244591e-01 4.142380e-01 9.996338e-01
77 1 6.000000e-06 1.000000e-06 0.000000e+00 1.244591e-01 4.444945e-01 -1.000366e+00
78 1 6.500000e-06 1.000000e-06 0.000000e+00 1.244591e-01 3.539412e-01 9.996338e-01
79 1 7.000000e-06 1.000000e-06 0.000000e+00 1.244591e-01 3.239991e-01 -1.000366e+00
80 1 7.500000e-06 1.000000e-06 0.000000e+00 1.244591e-01 3.905662e-01 9.996338e-01
81 1 8.000000e-06 1.000000e-06 0.000000e+00 1.244591e-01 3.782178e-01 9.996338e-01
82 1 8.500000e-06 1.000000e-06 0.000000e+00 1.244591e-01 3.930464e-01 -1.000366e+00
83 1 9.000000e-06 1.000000e-06 0.000000e+00 1.244591e-01 3.986834e-01 9.996338e-01
84 1 9.500000e-06 1.000000e-06 0.000000e+00 1.244591e-01 4.263092e-01 -1.000366e+00
85 1 1.000000e-05 1.000000e-06 0.000000e+00 1.244591e-01 3.638543e-01 9.996338e-01
86 1 1.050000e-05 1.000000e-06 0.000000e+00 1.244591e-01 3.955513e-01 -1.000366e+00
87 1 1.100000e-05 1.000000e-06 0.000000e+00 1.244591e-01 3.988540e-01 9.996338e-01
88 1 1.150000e-05 1.000000e-06 0.000000e+00 1.244591e-01 3.903437e-01 -1.000366e+00
89 1 1.200000e-05 1.000000e-06 0.000000e+00 1.244591e-01 3.867227e-01 9.996338e-01
90 1 1.250000e-05 1.000000e-06 0.000000e+00 1.244591e-01 4.135451e-01 -1.000366e+00
91 1 1.300000e-05 1.000000e-06 0.000000e+00 1.244591e-01 3.895880e-01 9.996338e-01
92 1 1.350000e-05 1.000000e-06 0.000000e+00 1.244591e-01 3.889015e-01 -1.000366e+00
93 1 1.400000e-05 1.000000e-06 0.000000e+00 1.244591e-01 3.907155e-01 9.996338e-01
94 1 1.450000e-05 1.000000e-06 0.000000e+00 1.244591e-01 4.136452e-01 -1.000366e+00
95 1 1.500000e-05 1.000000e-06 0.000000e+00 1.244591e-01 4.089860e-01 9.996338e-01
96 1 1.550000e-05 1.000000e-06 0.000000e+00 1.244591e-01 5.835754e-01 -1.000366e+00
97 1 0.000000e+00 1.500000e-06 0.000000e+00 1.244591e-01 4.809953e-01 9.996338e-01
98 1 5.000000e-07 1.500000e-06 0.000000e+00 1.244591e-01 4.423787e-01 -1.000366e+00
99 1 1.000000e-06 1.500000e-06 0.000000e+00 1.244591e-01 3.838441e-01 9.996338e-01
100 1 1.500000e-06 1.500000e-06 0.000000e+00 1.244591e-01 4.145964e-01 -1.000366e+00
101 1 2.000000e-06 1.500000e-06 0.000000e+00 1.244591e-01 4.171606e-01 9.996338e-01
102 1 2.500000e-06 1.500000e-06 0.000000e+00 1.244591e-01 4.066276e-01 -1.000366e+00
103 1 3.000000e-06 1.500000e-06 0.000000e+00 1.244591e-01 3.962418e-01 9.996338e-01
104 1 3.500000e-06 1.500000e-06 0.000000e+00 1.244591e-01 3.962246e-01 -1.000366e+00
105 1 4.000000e-06 1.500000e-06 0.000000e+00 1.244591e-01 4.273479e-01 9.996338e-01
106 1 4.500000e-06 1.500000e-06 0.000000e+00 1.244591e-01 4.391005e-01 -1.000366e+00
107 1 5.000000e-06 1.500000e-06 0.000000e+00 1.244591e-01 4.387416e-01 9.996338e-01
108 1 5.500000e-06 1.500000e-06 0.000000e+00 1.244591e-01 4.315025e-01 -1.000366e+00
109 1 6.000000e-06 1.500000e-06 0.000000e+00 1.244591e-01 3.907215e-01 9.996338e-01
110 1 6.500000e-06 1.500000e-06 0.000000e+00 1.244591e-01 4.040889e-01 -1.000366e+00
111 1 7.000000e-06 1.500000e-06 0.000000e+00 1.244591e-01 4.322306e-01 -1.000366e+00
112 1 7.500000e-06 1.500000e-06 0.000000e+00 1.244591e-01 4.034007e-01 9.996338e-01
113 1 8.000000e-06 1.500000e-06 0.000000e+00 1.244591e-01 4.104802e-01 -1.000366e+00
114 1 8.500000e-06 1.500000e-06 0.000000e+00 1.244591e-01 3.990614e-01 9.996338e-01
115 1 9.000000e-06 1.500000e-06 0.000000e+00 1.244591e-01 3.890513e-01 -1.000366e+00
116 1 9.500000e-06 1.500000e-06 0.000000e+00 1.244591e-01 3.852602e-01 9.996338e-01
117 1 1.000000e-05 1.500000e-06 0.000000e+00 1.244591e-01 3.648985e-01 -1.000366e+00
118 1 1.050000e-05 1.500000e-06 0.000000e+00 1.244591e-01 3.895915e-01 9.996338e-01
119 1 1.100000e-05 1.500000e-06 0.000000e+00 1.244591e-01 3.962301e-01 -1.000366e+00
120 1 1.150000e-05 1.500000e-06 0.000000e+00 1.244591e-01 3.649310e-01 9.996338e-01
121 1 1.200000e-05 1.500000e-06 0.000000e+00 1.244591e-01 4.191138e-01 -1.000366e+00
122 1 1.250000e-05 1.500000e-06 0.000000e+00 1.244591e-01 4.244295e-01 9.996338e-01
123 1 1.300000e-05 1.500000e-06 0.000000e+00 1.244591e-01 4.242963e-01 -1.000366e+00
124 1 1.350000e-05 1.500000e-06 0.000000e+00 1.244591e-01 4.109832e-01 9.996338e-01
125 1 1.400000e-05 1.500000e-06 0.000000e+00 1.244591e-01 3.992695e-01 -1.000366e+00
126 1 1.450000e-05 1.500000e-06 0.000000e+00 1.244591e-01 4.263029e-01 9.996338e-01
127 1 1.500000e-05 1.500000e-06 0.000000e+00 1.244591e-01 3.962257e-01 -1.000366e+00
128 1 1.550000e-05 1.500000e-06 0.000000e+00 1.244591e-01 5.899570e-01 9.996338e-01
129 1 0.000000e+00 2.000000e-06 0.000000e+00 1.244591e-01 5.095540e-01 -1.000366e+00
130 1 5.000000e-07 2.000000e-06 0.000000e+00 1.244591e-01 4.032928e-01 9.996338e-01
131 1 1.000000e-06 2.000000e-06 0.000000e+00 1.244591e-01 4.225306e-01 -1.000366e+00
132 1 1.500000e-06 2.000000e-06 0.000000e+00 1.244591e-01 4.116650e-01 9.996338e-01
133 1 2.000000e-06 2.000000e-06 0.000000e+00 1.244591e-01 3.817494e-01 -1.000366e+00
134 1 2.500000e-06 2.000000e-06 0.000000e+00 1.244591e-01 4.012193e-01 9.996338e-01
135 1 3.000000e-06 2.000000e-06 0.000000e+00 1.244591e-01 4.194063e-01 -1.000366e+00
136 1 3.500000e-06 2.000000e-06 0.000000e+00 1.244591e-01 3.963014e-01 9.996338e-01
137 1 4.000000e-06 2.000000e-06 0.000000e+00 1.244591e-01 4.324437e-01 -1.000366e+00
138 1 4.500000e-06 2.000000e-06 0.000000e+00 1.244591e-01 4.309426e-01 9.996338e-01
139 1 5.000000e-06 2.000000e-06 0.000000e+00 1.244591e-01 4.458738e-01 -1.000366e+00
140 1 5.500000e-06 2.000000e-06 0.000000e+00 1.244591e-01 3.673957e-01 9.996338e-01
141 1 6.000000e-06 2.000000e-06 0.000000e+00 1.244591e-01 4.171587e-01 -1.000366e+00
142 1 6.500000e-06 2.000000e-06 0.000000e+00 1.244591e-01 4.110524e-01 -1.000366e+00
143 1 7.000000e-06 2.000000e-06 0.000000e+00 1.244591e-01 4.042874e-01 9.996338e-01
144 1 7.500000e-06 2.000000e-06 0.000000e+00 1.244591e-01 4.035038e-01 -1.000366e+00
145 1 8.000000e-06 2.000000e-06 0.000000e+00 1.244591e-01 3.990463e-01 9.996338e-01
146 1 8.500000e-06 2.000000e-06 0.000000e+00 1.244591e-01 4.194554e-01 -1.000366e+00
147 1 9.000000e-06 2.000000e-06 0.000000e+00 1.244591e-01 3.991369e-01 9.996338e-01
148 1 9.500000e-06 2.000000e-06 0.000000e+00 1.244591e-01 3.760981e-01 -1.000366e+00
149 1 1.000000e-05 2.000000e-06 0.000000e+00 1.244591e-01 3.994445e-01 9.996338e-01
150 1 1.050000e-05 2.000000e-06 0.000000e+00 1.244591e-01 3.985856e-01 -1.000366e+00
151 1 1.100000e-05 2.000000e-06 0.000000e+00 1.244591e-01 3.986203e-01 9.996338e-01
152 1 1.150000e-05 2.000000e-06 0.000000e+00 1.244591e-01 3.888370e-01 -1.000366e+00
153 1 1.200000e-05 2.000000e-06 0.000000e+00 1.244591e-01 3.986830e-01 9.996338e-01
154 1 1.250000e-05 2.000000e-06 0.000000e+00 1.244591e-01 4.066316e-01 -1.000366e+00
155 1 1.300000e-05 2.000000e-06 0.000000e+00 1.244591e-01 3.962714e-01 9.996338e-01
156 1 1.350000e-05 2.000000e-06 0.000000e+00 1.244591e-01 4.089622e-01 -1.000366e+00
157 1 1.400000e-05 2.000000e-06 0.000000e+00 1.244591e-01 4.089074e-01 9.996338e-01
158 1 1.450000e-05 2.000000e-06 0.000000e+00 1.244591e-01 3.965360e-01 -1.000366e+00
159 1 1.500000e-05 2.000000e-06 0.000000e+00 1.244591e-01 4.030160e-01 9.996338e-01
160 1 1.550000e-05 2.000000e-06 0.000000e+00 1.244591e-01 5.638417e-01 9.996338e-01
161 1 0.000000e+00 2.500000e-06 0.000000e+00 1.244591e-01 5.340868e-01 9.996338e-01
162 1 5.000000e-07 2.500000e-06 0.000000e+00 1.244591e-01 4.307210e-01 -1.000366e+00
163 1 1.000000e-06 2.500000e-06 0.000000e+00 1.244591e-01 4.276984e-01 9.996338e-01
164 1 1.500000e-06 2.500000e-06 0.000000e+00 1.244591e-01 4.288556e-01 -1.000366e+00
165 1 2.000000e-06 2.500000e-06 0.000000e+00 1.244591e-01 4.071576e-01 9.996338e-01
166 1 2.500000e-06 2.500000e-06 0.000000e+00 1.244591e-01 3.763899e-01 -1.000366e+00
167 1 3.000000e-06 2.500000e-06 0.000000e+00 1.244591e-01 4.032759e-01 9.996338e-01
168 1 3.500000e-06 2.500000e-06 0.000000e+00 1.244591e-01 3.986682e-01 -1.000366e+00
169 1 4.000000e-06 2.500000e-06 0.000000e+00 1.244591e-01 4.188428e-01 9.996338e-01
170 1 4.500000e-06 2.500000e-06 0.000000e+00 1.244591e-01 4.160700e-01 -1.000366e+00
171 1 5.000000e-06 2.500000e-06 0.000000e+00 1.244591e-01 4.249057e-01 9.996338e-01
172 1 5.500000e-06 2.500000e-06 0.000000e+00 1.244591e-01 4.368083e-01 -1.000366e+00
173 1 6.000000e-06 2.500000e-06 0.000000e+00 1.244591e-01 4.316232e-01 9.996338e-01
174 1 6.500000e-06 2.500000e-06 0.000000e+00 1.244591e-01 4.258016e-01 -1.000366e+00
175 1 7.000000e-06 2.500000e-06 0.000000e+00 1.244591e-01 4.053038e-01 9.996338e-01
176 1 7.500000e-06 2.500000e-06 0.000000e+00 1.244591e-01 4.431342e-01 9.996338e-01
177 1 8.000000e-06 2.500000e-06 0.000000e+00 1.244591e-01 4.407129e-01 -1.000366e+00
178 1 8.500000e-06 2.500000e-06 0.000000e+00 1.244591e-01 4.475862e-01 9.996338e-01
179 1 9.000000e-06 2.500000e-06 0.000000e+00 1.244591e-01 4.213764e-01 -1.000366e+00
180 1 9.500000e-06 2.500000e-06 0.000000e+00 1.244591e-01 4.296974e-01 9.996338e-01
181 1 1.000000e-05 2.500000e-06 0.000000e+00 1.244591e-01 4.013549e-01 -1.000366e+00
182 1 1.050000e-05 2.500000e-06 0.000000e+00 1.244591e-01 4.385961e-01 9.996338e-01
183 1 1.100000e-05 2.500000e-06 0.000000e+00 1.244591e-01 4.268427e-01 -1.000366e+00
184 1 1.150000e-05 2.500000e-06 0.000000e+00 1.244591e-01 4.265491e-01 9.996338e-01
185 1 1.200000e-05 2.500000e-06 0.000000e+00 1.244591e-01 4.430719e-01 -1.000366e+00
186 1 1.250000e-05 2.500000e-06 0.000000e+00 1.244591e-01 4.430756e-01 9.996338e-01
187 1 1.300000e-05 2.500000e-06 0.000000e+00 1.244591e-01 4.281864e-01 -1.000366e+00
188 1 1.350000e-05 2.500000e-06 0.000000e+00 1.244591e-01 4.524920e-01 9.996338e-01
189 1 1.400000e-05 2.500000e-06 0.000000e+00 1.244591e-01 4.444727e-01 -1.000366e+00
190 1 1.450000e-05 2.500000e-06 0.000000e+00 1.244591e-01 4.068796e-01 -1.000366e+00
191 1 1.500000e-05 2.500000e-06 0.000000e+00 1.244591e-01 4.349340e-01 9.996338e-01
192 1 1.550000e-05 2.500000e-06 0.000000e+00 1.244591e-01 5.306939e-01 -1.000366e+00
193 1 0.000000e+00 3.000000e-06 0.000000e+00 1.244591e-01 5.772744e-01 -1.000366e+00
194 1 5.000000e-07 3.000000e-06 0.000000e+00 1.244591e-01 3.987339e-01 9.996338e-01
195 1 1.000000e-06 3.000000e-06 0.000000e+00 1.244591e-01 4.096106e-01 -1.000366e+00
196 1 1.500000e-06 3.000000e-06 0.000000e+00 1.244591e-01 4.146653e-01 9.996338e-01
197 1 2.000000e-06 3.000000e-06 0.000000e+00 1.244591e-01 3.749554e-01 -1.000366e+00
198 1 2.500000e-06 3.000000e-06 0.000000e+00 1.244591e-01 3.750887e-01 9.996338e-01
199 1 3.000000e-06 3.000000e-06 0.000000e+00 1.244591e-01 4.016853e-01 -1.000366e+00
200 1 3.500000e-06 3.000000e-06 0.000000e+00 1.244591e-01 4.089323e-01 9.996338e-01
201 1 4.000000e-06 3.000000e-06 0.000000e+00 1.244591e-01 3.962938e-01 -1.000366e+00
202 1 4.500000e-06 3.000000e-06 0.000000e+00 1.244591e-01 4.188773e-01 9.996338e-01
203 1 5.000000e-06 3.000000e-06 0.000000e+00 1.244591e-01 4.571287e-01 -1.000366e+00
204 1 5.500000e-06 3.000000e-06 0.000000e+00 1.244591e-01 4.384521e-01 9.996338e-01
205 1 6.000000e-06 3.000000e-06 0.000000e+00 1.244591e-01 4.347745e-01 -1.000366e+00
206 1 6.500000e-06 3.000000e-06 0.000000e+00 1.244591e-01 4.450982e-01 9.996338e-01
207 1 7.000000e-06 3.000000e-06 0.000000e+00 1.244591e-01 4.659450e-01 -1.000366e+00
208 1 7.500000e-06 3.000000e-06 0.000000e+00 1.244591e-01 3.945627e-01 9.996338e-01
209 1 8.000000e-06 3.000000e-06 0.000000e+00 1.244591e-01 3.442041e-01 -1.000366e+00
210 1 8.500000e-06 3.000000e-06 0.000000e+00 1.244591e-01 3.442236e-01 9.996338e-01
211 1 9.000000e-06 3.000000e-06 0.000000e+00 1.244591e-01 3.433959e-01 -1.000366e+00
212 1 9.500000e-06 3.000000e-06 0.000000e+00 1.244591e-01 3.876295e-01 9.996338e-01
213 1 1.000000e-05 3.000000e-06 0.000000e+00 1.244591e-01 3.331373e-01 -1.000366e+00
214 1 1.050000e-05 3.000000e-06 0.000000e+00 1.244591e-01 3.726598e-01 9.996338e-01
215 1 1.100000e-05 3.000000e-06 0.000000e+00 1.244591e-01 4.496590e-01 -1.000366e+00
216 1 1.150000e-05 3.000000e-06 0.000000e+00 1.244591e-01 4.631634e-01 9.996338e-01
217 1 1.200000e-05 3.000000e-06 0.000000e+00 1.244591e-01 3.950553e-01 -1.000366e+00
218 1 1.250000e-05 3.000000e-06 0.000000e+00 1.244591e-01 4.101775e-01 9.996338e-01
219 1 1.300000e-05 3.000000e-06 0.000000e+00 1.244591e-01 4.402880e-01 -1.000366e+00
220 1 1.350000e-05 3.000000e-06 0.000000e+00 1.244591e-01 4.349129e-01 9.996338e-01
221 1 1.400000e-05 3.000000e-06 0.000000e+00 1.244591e-01 4.342632e-01 -1.000366e+00
222 1 1.450000e-05 3.000000e-06 0.000000e+00 1.244591e-01 4.509888e-01 9.996338e-01
223 1 1.500000e-05 3.000000e-06 0.000000e+00 1.244591e-01 4.465559e-01 -1.000366e+00
224 1 1.550000e-05 3.000000e-06 0.000000e+00 1.244591e-01 6.084845e-01 9.996338e-01
225 1 0.000000e+00 3.500000e-06 0.000000e+00 1.244591e-01 5.603691e-01 9.996338e-01
226 1 5.000000e-07 3.500000e-06 0.000000e+00 1.244591e-01 3.962455e-01 -1.000366e+00
227 1 1.000000e-06 3.500000e-06 0.000000e+00 1.244591e-01 3.961951e-01 9.996338e-01
228 1 1.500000e-06 3.500000e-06 0.000000e+00 1.244591e-01 3.986027e-01 -1.000366e+00
229 1 2.000000e-06 3.500000e-06 0.000000e+00 1.244591e-01 3.861582e-01 9.996338e-01
230 1 2.500000e-06 3.500000e-06 0.000000e+00 1.244591e-01 3.830398e-01 -1.000366e+00
231 1 3.000000e-06 3.500000e-06 0.000000e+00 1.244591e-01 3.882106e-01 9.996338e-01
232 1 3.500000e-06 3.500000e-06 0.000000e+00 1.244591e-01 3.890943e-01 -1.000366e+00
233 1 4.000000e-06 3.500000e-06 0.000000e+00 1.244591e-01 3.730177e-01 9.996338e-01
234 1 4.500000e-06 3.500000e-06 0.000000e+00 1.244591e-01 3.079989e-01 -1.000366e+00
235 1 5.000000e-06 3.500000e-06 0.000000e+00 1.244591e-01 3.675821e-01 9.996338e-01
236 1 5.500000e-06 3.500000e-06 0.000000e+00 1.244591e-01 4.318991e-01 -1.000366e+00
237 1 6.000000e-06 3.500000e-06 0.000000e+00 1.244591e-01 3.986425e-01 9.996338e-01
238 1 6.500000e-06 3.500000e-06 0.000000e+00 1.244591e-01 3.987687e-01 -1.000366e+00
239 1 7.000000e-06 3.500000e-06 0.000000e+00 1.244591e-01 3.986281e-01 9.996338e-01
240 1 7.500000e-06 3.500000e-06 0.000000e+00 1.244591e-01 3.693795e-01 -1.000366e+00
241 1 8.000000e-06 3.500000e-06 0.000000e+00 1.244591e-01 4.013935e-01 9.996338e-01
242 1 8.500000e-06 3.500000e-06 0.000000e+00 1.244591e-01 3.646590e-01 -1.000366e+00
243 1 9.000000e-06 3.500000e-06 0.000000e+00 1.244591e-01 4.169035e-01 9.996338e-01
244 1 9.500000e-06 3.500000e-06 0.000000e+00 1.244591e-01 3.741698e-01 -1.000366e+00
245 1 1.000000e-05 3.500000e-06 0.000000e+00 1.244591e-01 3.638781e-01 9.996338e-01
246 1 1.050000e-05 3.500000e-06 0.000000e+00 1.244591e-01 3.290443e-01 -1.000366e+00
247 1 1.100000e-05 3.500000e-06 0.000000e+00 1.244591e-01 3.904408e-01 9.996338e-01
248 1 1.150000e-05 3.500000e-06 0.000000e+00 1.244591e-01 4.360405e-01 -1.000366e+00
249 1 1.200000e-05 3.500000e-06 0.000000e+00 1.244591e-01 3.962166e-01 9.996338e-01
250 1 1.250000e-05 3.500000e-06 0.000000e+00 1.244591e-01 4.066352e-01 -1.000366e+00
251 1 1.300000e-05 3.500000e-06 0.000000e+00 1.244591e-01 4.057896e-01 9.996338e-01
252 1 1.350000e-05 3.500000e-06 0.000000e+00 1.244591e-01 3.920821e-01 -1.000366e+00
253 1 1.400000e-05 3.500000e-06 0.000000e+00 1.244591e-01 3.705431e-01 9.996338e-01
254 1 1.450000e-05 3.500000e-06 0.000000e+00 1.244591e-01 3.739064e-01 -1.000366e+00
255 1 1.500000e-05 3.500000e-06 0.000000e+00 1.244591e-01 3.680183e-01 9.996338e-01
256 1 1.550000e-05 3.500000e-06 0.000000e+00 1.244591e-01 5.581295e-01 -1.000366e+00
257 1 0.000000e+00 4.000000e-06 0.000000e+00 1.244591e-01 5.639803e-01 -1.000366e+00
258 1 5.000000e-07 4.000000e-06 0.000000e+00 1.244591e-01 3.987105e-01 9.996338e-01
259 1 1.000000e-06 4.000000e-06 0.000000e+00 1.244591e-01 3.986590e-01 -1.000366e+00
260 1 1.500000e-06 4.000000e-06 0.000000e+00 1.244591e-01 4.034755e-01 9.996338e-01
261 1 2.000000e-06 4.000000e-06 0.000000e+00 1.244591e-01 3.970952e-01 -1.000366e+00
262 1 2.500000e-06 4.000000e-06 0.000000e+00 1.244591e-01 4.013496e-01 9.996338e-01
263 1 3.000000e-06 4.000000e-06 0.000000e+00 1.244591e-01 4.279530e-01 -1.000366e+00
264 1 3.500000e-06 4.000000e-06 0.000000e+00 1.244591e-01 4.339224e-01 9.996338e-01
265 1 4.000000e-06 4.000000e-06 0.000000e+00 1.244591e-01 4.174965e-01 -1.000366e+00
266 1 4.500000e-06 4.000000e-06 0.000000e+00 1.244591e-01 4.620987e-01 9.996338e-01
267 1 5.000000e-06 4.000000e-06 0.000000e+00 1.244591e-01 4.472872e-01 -1.000366e+00
268 1 5.500000e-06 4.000000e-06 0.000000e+00 1.244591e-01 4.312204e-01 9.996338e-01
269 1 6.000000e-06 4.000000e-06 0.000000e+00 1.244591e-01 4.365886e-01 -1.000366e+00
270 1 6.500000e-06 4.000000e-06 0.000000e+00 1.244591e-01 3.962688e-01 9.996338e-01
271 1 7.000000e-06 4.000000e-06 0.000000e+00 1.244591e-01 4.220589e-01 -1.000366e+00
272 1 7.500000e-06 4.000000e-06 0.000000e+00 1.244591e-01 4.274881e-01 9.996338e-01
273 1 8.000000e-06 4.000000e-06 0.000000e+00 1.244591e-01 4.197428e-01 -1.000366e+00
274 1 8.500000e-06 4.000000e-06 0.000000e+00 1.244591e-01 4.007758e-01 9.996338e-01
275 1 9.000000e-06 4.000000e-06 0.000000e+00 1.244591e-01 4.089316e-01 -1.000366e+00
276 1 9.500000e-06 4.000000e-06 0.000000e+00 1.244591e-01 3.963381e-01 9.996338e-01
277 1 1.000000e-05 4.000000e-06 0.000000e+00 1.244591e-01 3.962988e-01 -1.000366e+00
278 1 1.050000e-05 4.000000e-06 0.000000e+00 1.244591e-01 3.931006e-01 9.996338e-01
279 1 1.100000e-05 4.000000e-06 0.000000e+00 1.244591e-01 3.888090e-01 -1.000366e+00
280 1 1.150000e-05 4.000000e-06 0.000000e+00 1.244591e-01 4.007436e-01 9.996338e-01
281 1 1.200000e-05 4.000000e-06 0.000000e+00 1.244591e-01 4.196392e-01 -1.000366e+00
282 1 1.250000e-05 4.000000e-06 0.000000e+00 1.244591e-01 4.170840e-01 9.996338e-01
283 1 1.300000e-05 4.000000e-06 0.000000e+00 1.244591e-01 4.116500e-01 -1.000366e+00
284 1 1.350000e-05 4.000000e-06 0.000000e+00 1.244591e-01 3.992371e-01 9.996338e-01
285 1 1.400000e-05 4.000000e-06 0.000000e+00 1.244591e-01 4.074581e-01 -1.000366e+00
286 1 1.450000e-05 4.000000e-06 0.000000e+00 1.244591e-01 4.042534e-01 9.996338e-01
287 1 1.500000e-05 4.000000e-06 0.000000e+00 1.244591e-01 4.016489e-01 -1.000366e+00
288 1 1.550000e-05 4.000000e-06 0.000000e+00 1.244591e-01 5.679218e-01 9.996338e-01
289 1 0.000000e+00 4.500000e-06 0.000000e+00 1.244591e-01 5.510364e-01 9.996338e-01
290 1 5.000000e-07 4.500000e-06 0.000000e+00 1.244591e-01 3.988907e-01 -1.000366e+00
291 1 1.000000e-06 4.500000e-06 0.000000e+00 1.244591e-01 3.988361e-01 9.996338e-01
292 1 1.500000e-06 4.500000e-06 0.000000e+00 1.244591e-01 3.988813e-01 -1.000366e+00
293 1 2.000000e-06 4.500000e-06 0.000000e+00 1.244591e-01 4.046896e-01 9.996338e-01
294 1 2.500000e-06 4.500000e-06 0.000000e+00 1.244591e-01 3.916200e-01 -1.000366e+00
295 1 3.000000e-06 4.500000e-06 0.000000e+00 1.244591e-01 4.461609e-01 9.996338e-01
296 1 3.500000e-06 4.500000e-06 0.000000e+00 1.244591e-01 4.221348e-01 -1.000366e+00
297 1 4.000000e-06 4.500000e-06 0.000000e+00 1.244591e-01 4.182247e-01 9.996338e-01
298 1 4.500000e-06 4.500000e-06 0.000000e+00 1.244591e-01 3.703323e-01 -1.000366e+00
299 1 5.000000e-06 4.500000e-06 0.000000e+00 1.244591e-01 4.189803e-01 9.996338e-01
300 1 5.500000e-06 4.500000e-06 0.000000e+00 1.244591e-01 4.110658e-01 -1.000366e+00
301 1 6.000000e-06 4.500000e-06 0.000000e+00 1.244591e-01 3.930000e-01 9.996338e-01
302 1 6.500000e-06 4.500000e-06 0.000000e+00 1.244591e-01 4.012944e-01 -1.000366e+00
303 1 7.000000e-06 4.500000e-06 0.000000e+00 1.244591e-01 3.985843e-01 9.996338e-01
304 1 7.500000e-06 4.500000e-06 0.000000e+00 1.244591e-01 4.058066e-01 -1.000366e+00
305 1 8.000000e-06 4.500000e-06 0.000000e+00 1.244591e-01 4.167014e-01 9.996338e-01
306 1 8.500000e-06 4.500000e-06 0.000000e+00 1.244591e-01 4.138844e-01 -1.000366e+00
307 1 9.000000e-06 4.500000e-06 0.000000e+00 1.244591e-01 3.961909e-01 9.996338e-01
308 1 9.500000e-06 4.500000e-06 0.000000e+00 1.244591e-01 4.066293e-01 -1.000366e+00
309 1 1.000000e-05 4.500000e-06 0.000000e+00 1.244591e-01 3.888660e-01 9.996338e-01
310 1 1.050000e-05 4.500000e-06 0.000000e+00 1.244591e-01 4.058192e-01 -1.000366e+00
311 1 1.100000e-05 4.500000e-06 0.000000e+00 1.244591e-01 3.868124e-01 9.996338e-01
312 1 1.150000e-05 4.500000e-06 0.000000e+00 1.244591e-01 3.929838e-01 -1.000366e+00
313 1 1.200000e-05 4.500000e-06 0.000000e+00 1.244591e-01 3.986960e-01 9.996338e-01
314 1 1.250000e-05 4.500000e-06 0.000000e+00 1.244591e-01 4.138383e-01 -1.000366e+00
315 1 1.300000e-05 4.500000e-06 0.000000e+00 1.244591e-01 4.074541e-01 9.996338e-01
316 1 1.350000e-05 4.500000e-06 0.000000e+00 1.244591e-01 3.931260e-01 -1.000366e+00
317 1 1.400000e-05 4.500000e-06 0.000000e+00 1.244591e-01 3.735826e-01 9.996338e-01
318 1 1.450000e-05 4.500000e-06 0.000000e+00 1.244591e-01 3.903768e-01 -1.000366e+00
319 1 1.500000e-05 4.500000e-06 0.000000e+00 1.244591e-01 4.154142e-01 9.996338e-01
320 1 1.550000e-05 4.500000e-06 0.000000e+00 1.244591e-01 5.804174e-01 -1.000366e+00
321 1 0.000000e+00 5.000000e-06 0.000000e+00 1.244591e-01 5.640038e-01 -1.000366e+00
322 1 5.000000e-07 5.000000e-06 0.000000e+00 1.244591e-01 3.986031e-01 9.996338e-01
323 1 1.000000e-06 5.000000e-06 0.000000e+00 1.244591e-01 3.986483e-01 -1.000366e+00
324 1 1.500000e-06 5.000000e-06 0.000000e+00 1.244591e-01 3.931279e-01 9.996338e-01
325 1 2.000000e-06 5.000000e-06 0.000000e+00 1.244591e-01 3.942207e-01 -1.000366e+00
326 1 2.500000e-06 5.000000e-06 0.000000e+00 1.244591e-01 3.964007e-01 9.996338e-01
327 1 3.000000e-06 5.000000e-06 0.000000e+00 1.244591e-01 4.192244e-01 -1.000366e+00
328 1 3.500000e-06 5.000000e-06 0.000000e+00 1.244591e-01 4.324511e-01 9.996338e-01
329 1 4.000000e-06 5.000000e-06 0.000000e+00 1.244591e-01 4.340439e-01 -1.000366e+00
330 1 4.500000e-06 5.000000e-06 0.000000e+00 1.244591e-01 3.546412e-01 9.996338e-01
331 1 5.000000e-06 5.000000e-06 0.000000e+00 1.244591e-01 3.884993e-01 -1.000366e+00
332 1 5.500000e-06 5.000000e-06 0.000000e+00 1.244591e-01 4.169528e-01 9.996338e-01
333 1 6.000000e-06 5.000000e-06 0.000000e+00 1.244591e-01 4.026769e-01 -1.000366e+00
334 1 6.500000e-06 5.000000e-06 0.000000e+00 1.244591e-01 3.986399e-01 9.996338e-01
335 1 7.000000e-06 5.000000e-06 0.000000e+00 1.244591e-01 3.963259e-01 -1.000366e+00
336 1 7.500000e-06 5.000000e-06 0.000000e+00 1.244591e-01 3.987319e-01 9.996338e-01
337 1 8.000000e-06 5.000000e-06 0.000000e+00 1.244591e-01 4.116960e-01 -1.000366e+00
338 1 8.500000e-06 5.000000e-06 0.000000e+00 1.244591e-01 4.171882e-01 9.996338e-01
339 1 9.000000e-06 5.000000e-06 0.000000e+00 1.244591e-01 3.962920e-01 -1.000366e+00
340 1 9.500000e-06 5.000000e-06 0.000000e+00 1.244591e-01 4.170234e-01 9.996338e-01
341 1 1.000000e-05 5.000000e-06 0.000000e+00 1.244591e-01 4.115272e-01 -1.000366e+00
342 1 1.050000e-05 5.000000e-06 0.000000e+00 1.244591e-01 4.140752e-01 9.996338e-01
343 1 1.100000e-05 5.000000e-06 0.000000e+00 1.244591e-01 4.196688e-01 -1.000366e+00
344 1 1.150000e-05 5.000000e-06 0.000000e+00 1.244591e-01 3.991843e-01 9.996338e-01
345 1 1.200000e-05 5.000000e-06 0.000000e+00 1.244591e-01 3.962766e-01 -1.000366e+00
346 1 1.250000e-05 5.000000e-06 0.000000e+00 1.244591e-01 4.116079e-01 9.996338e-01
347 1 1.300000e-05 5.000000e-06 0.000000e+00 1.244591e-01 4.249626e-01 -1.000366e+00
348 1 1.350000e-05 5.000000e-06 0.000000e+00 1.244591e-01 3.644575e-01 9.996338e-01
349 1 1.400000e-05 5.000000e-06 0.000000e+00 1.244591e-01 3.530609e-01 -1.000366e+00
350 1 1.450000e-05 5.000000e-06 0.000000e+00 1.244591e-01 3.767557e-01 9.996338e-01
351 1 1.500000e-05 5.000000e-06 0.000000e+00 1.244591e-01 3.841772e-01 -1.000366e+00
352 1 1.550000e-05 5.000000e-06 0.000000e+00 1.244591e-01 5.454266e-01 9.996338e-01
353 1 0.000000e+00 5.500000e-06 0.000000e+00 1.244591e-01 5.428660e-01 9.996338e-01
354 1 5.000000e-07 5.500000e-06 0.000000e+00 1.244591e-01 3.761588e-01 -1.000366e+00