ITEM: TIMESTEP
12
ITEM: NUMBER OF ATOMS
16384
ITEM: BOX BOUNDS pp pp pp
0.0 1.600000e-05
0.0 1.600000e-05
0.0 8.000000e-06
ITEM: ATOMS id type x y z crack plastic psi
1 1 0.000000e+00 0.000000e+00 0.000000e+00 1.000000e+00 8.725894e-01 -9.998779e-01
2 1 5.000000e-07 0.000000e+00 0.000000e+00 1.000000e+00 7.615791e-01 1.000122e+00
3 1 1.000000e-06 0.000000e+00 0.000000e+00 1.000000e+00 7.470724e-01 -9.998779e-01
4 1 1.500000e-06 0.000000e+00 0.000000e+00 1.000000e+00 7.418347e-01 1.000122e+00
5 1 2.000000e-06 0.000000e+00 0.000000e+00 1.000000e+00 7.418016e-01 -9.998779e-01
6 1 2.500000e-06 0.000000e+00 0.000000e+00 1.000000e+00 7.391882e-01 1.000122e+00
7 1 3.000000e-06 0.000000e+00 0.000000e+00 1.000000e+00 7.441882e-01 -9.998779e-01
8 1 3.500000e-06 0.000000e+00 0.000000e+00 1.000000e+00 7.441728e-01 1.000122e+00
9 1 4.000000e-06 0.000000e+00 0.000000e+00 1.000000e+00 7.441589e-01 -9.998779e-01
10 1 4.500000e-06 0.000000e+00 0.000000e+00 1.000000e+00 7.363121e-01 1.000122e+00
11 1 5.000000e-06 0.000000e+00 0.000000e+00 1.000000e+00 7.411663e-01 -9.998779e-01
12 1 5.500000e-06 0.000000e+00 0.000000e+00 1.000000e+00 7.353997e-01 1.000122e+00
13 1 6.000000e-06 0.000000e+00 0.000000e+00 1.000000e+00 7.353049e-01 -9.998779e-01
14 1 6.500000e-06 0.000000e+00 0.000000e+00 1.000000e+00 7.441587e-01 1.000122e+00
15 1 7.000000e-06 0.000000e+00 0.000000e+00 1.000000e+00 7.525335e-01 -9.998779e-01
16 1 7.500000e-06 0.000000e+00 0.000000e+00 1.000000e+00 7.594556e-01 1.000122e+00
17 1 8.000000e-06 0.000000e+00 0.000000e+00 1.000000e+00 7.495873e-01 -9.998779e-01
18 1 8.500000e-06 0.000000e+00 0.000000e+00 1.000000e+00 7.452448e-01 1.000122e+00
19 1 9.000000e-06 0.000000e+00 0.000000e+00 1.000000e+00 7.528595e-01 -9.998779e-01
20 1 9.500000e-06 0.000000e+00 0.000000e+00 1.000000e+00 7.482708e-01 1.000122e+00
21 1 1.000000e-05 0.000000e+00 0.000000e+00 1.000000e+00 7.595302e-01 -9.998779e-01
22 1 1.050000e-05 0.000000e+00 0.000000e+00 1.000000e+00 7.553503e-01 1.000122e+00
23 1 1.100000e-05 0.000000e+00 0.000000e+00 1.000000e+00 7.368942e-01 -9.998779e-01
24 1 1.150000e-05 0.000000e+00 0.000000e+00 1.000000e+00 7.012415e-01 1.000122e+00
25 1 1.200000e-05 0.000000e+00 0.000000e+00 1.000000e+00 7.352491e-01 -9.998779e-01
26 1 1.250000e-05 0.000000e+00 0.000000e+00 1.000000e+00 7.519850e-01 1.000122e+00
27 1 1.300000e-05 0.000000e+00 0.000000e+00 1.000000e+00 7.552720e-01 -9.998779e-01
28 1 1.350000e-05 0.000000e+00 0.000000e+00 1.000000e+00 7.515711e-01 1.000122e+00
29 1 1.400000e-05 0.000000e+00 0.000000e+00 1.000000e+00 7.486489e-01 -9.998779e-01
30 1 1.450000e-05 0.000000e+00 0.000000e+00 1.000000e+00 7.379921e-01 1.000122e+00
31 1 1.500000e-05 0.000000e+00 0.000000e+00 1.000000e+00 7.537056e-01 -9.998779e-01
32 1 1.550000e-05 0.000000e+00 0.000000e+00 1.000000e+00 8.964147e-01 1.000122e+00
33 1 0.000000e+00 5.000000e-07 0.000000e+00 1.000000e+00 6.880183e-01 1.000122e+00
34 1 5.000000e-07 5.000000e-07 0.000000e+00 1.000000e+00 5.320911e-01 -9.998779e-01
35 1 1.000000e-06 5.000000e-07 0.000000e+00 1.000000e+00 5.142219e-01 1.000122e+00
36 1 1.500000e-06 5.000000e-07 0.000000e+00 1.000000e+00 5.170276e-01 -9.998779e-01
37 1 2.000000e-06 5.000000e-07 0.000000e+00 1.000000e+00 5.166779e-01 1.000122e+00
38 1 2.500000e-06 5.000000e-07 0.000000e+00 1.000000e+00 5.198374e-01 -9.998779e-01
39 1 3.000000e-06 5.000000e-07 0.000000e+00 1.000000e+00 5.131873e-01 1.000122e+00
40 1 3.500000e-06 5.000000e-07 0.000000e+00 1.000000e+00 5.205253e-01 -9.998779e-01
41 1 4.000000e-06 5.000000e-07 0.000000e+00 1.000000e+00 5.210331e-01 1.000122e+00
42 1 4.500000e-06 5.000000e-07 0.000000e+00 1.000000e+00 5.178869e-01 -9.998779e-01
43 1 5.000000e-06 5.000000e-07 0.000000e+00 1.000000e+00 5.108696e-01 1.000122e+00
44 1 5.500000e-06 5.000000e-07 0.000000e+00 1.000000e+00 4.983231e-01 -9.998779e-01
45 1 6.000000e-06 5.000000e-07 0.000000e+00 1.000000e+00 5.095982e-01 1.000122e+00
46 1 6.500000e-06 5.000000e-07 0.000000e+00 1.000000e+00 5.291268e-01 -9.998779e-01
47 1 7.000000e-06 5.000000e-07 0.000000e+00 1.000000e+00 5.320672e-01 1.000122e+00
48 1 7.500000e-06 5.000000e-07 0.000000e+00 1.000000e+00 5.609274e-01 -9.998779e-01
49 1 8.000000e-06 5.000000e-07 0.000000e+00 1.000000e+00 5.343711e-01 1.000122e+00
50 1 8.500000e-06 5.000000e-07 0.000000e+00 1.000000e+00 5.240909e-01 -9.998779e-01
51 1 9.000000e-06 5.000000e-07 0.000000e+00 1.000000e+00 5.184782e-01 1.000122e+00
52 1 9.500000e-06 5.000000e-07 0.000000e+00 1.000000e+00 5.433129e-01 -9.998779e-01
53 1 1.000000e-05 5.000000e-07 0.000000e+00 1.000000e+00 5.365556e-01 1.000122e+00
54 1 1.050000e-05 5.000000e-07 0.000000e+00 1.000000e+00 5.129968e-01 -9.998779e-01
55 1 1.100000e-05 5.000000e-07 0.000000e+00 1.000000e+00 5.434933e-01 1.000122e+00
56 1 1.150000e-05 5.000000e-07 0.000000e+00 1.000000e+00 5.416176e-01 -9.998779e-01
57 1 1.200000e-05 5.000000e-07 0.000000e+00 1.000000e+00 5.322349e-01 1.000122e+00
58 1 1.250000e-05 5.000000e-07 0.000000e+00 1.000000e+00 5.119394e-01 -9.998779e-01
59 1 1.300000e-05 5.000000e-07 0.000000e+00 1.000000e+00 5.245532e-01 1.000122e+00
60 1 1.350000e-05 5.000000e-07 0.000000e+00 1.000000e+00 5.201469e-01 -9.998779e-01
61 1 1.400000e-05 5.000000e-07 0.000000e+00 1.000000e+00 5.214779e-01 1.000122e+00
62 1 1.450000e-05 5.000000e-07 0.000000e+00 1.000000e+00 5.404671e-01 -9.998779e-01
63 1 1.500000e-05 5.000000e-07 0.000000e+00 1.000000e+00 5.442262e-01 1.000122e+00
64 1 1.550000e-05 5.000000e-07 0.000000e+00 1.000000e+00 7.246337e-01 -9.998779e-01
65 1 0.000000e+00 1.000000e-06 0.000000e+00 1.000000e+00 7.059722e-01 -9.998779e-01
66 1 5.000000e-07 1.000000e-06 0.000000e+00 1.000000e+00 5.424073e-01 1.000122e+00
67 1 1.000000e-06 1.000000e-06 0.000000e+00 1.000000e+00 5.169192e-01 -9.998779e-01
68 1 1.500000e-06 1.000000e-06 0.000000e+00 1.000000e+00 5.142230e-01 1.000122e+00
69 1 2.000000e-06 1.000000e-06 0.000000e+00 1.000000e+00 5.129598e-01 -9.998779e-01
70 1 2.500000e-06 1.000000e-06 0.000000e+00 1.000000e+00 5.131769e-01 1.000122e+00
71 1 3.000000e-06 1.000000e-06 0.000000e+00 1.000000e+00 5.071656e-01 -9.998779e-01
72 1 3.500000e-06 1.000000e-06 0.000000e+00 1.000000e+00 5.210476e-01 1.000122e+00
73 1 4.000000e-06 1.000000e-06 0.000000e+00 1.000000e+00 5.315307e-01 -9.998779e-01
74 1 4.500000e-06 1.000000e-06 0.000000e+00 1.000000e+00 5.425336e-01 1.000122e+00
75 1 5.000000e-06 1.000000e-06 0.000000e+00 1.000000e+00 5.398134e-01 -9.998779e-01
76 1 5.500000e-06 1.000000e-06 0.000000e+00 1.000000e+00 5.312825e-01 1.000122e+00
77 1 6.000000e-06 1.000000e-06 0.000000e+00 1.000000e+00 5.398279e-01 -9.998779e-01
78 1 6.500000e-06 1.000000e-06 0.000000e+00 1.000000e+00 5.142530e-01 1.000122e+00
79 1 7.000000e-06 1.000000e-06 0.000000e+00 1.000000e+00 5.079349e-01 -9.998779e-01
80 1 7.500000e-06 1.000000e-06 0.000000e+00 1.000000e+00 5.387668e-01 1.000122e+00
81 1 8.000000e-06 1.000000e-06 0.000000e+00 1.000000e+00 5.227187e-01 -9.998779e-01
82 1 8.500000e-06 1.000000e-06 0.000000e+00 1.000000e+00 5.235941e-01 1.000122e+00
83 1 9.000000e-06 1.000000e-06 0.000000e+00 1.000000e+00 5.430648e-01 -9.998779e-01
84 1 9.500000e-06 1.000000e-06 0.000000e+00 1.000000e+00 5.526644e-01 1.000122e+00
85 1 1.000000e-05 1.000000e-06 0.000000e+00 1.000000e+00 5.370222e-01 -9.998779e-01
86 1 1.050000e-05 1.000000e-06 0.000000e+00 1.000000e+00 5.234087e-01 1.000122e+00
87 1 1.100000e-05 1.000000e-06 0.000000e+00 1.000000e+00 5.435587e-01 -9.998779e-01
88 1 1.150000e-05 1.000000e-06 0.000000e+00 1.000000e+00 5.219380e-01 1.000122e+00
89 1 1.200000e-05 1.000000e-06 0.000000e+00 1.000000e+00 5.389896e-01 -9.998779e-01
90 1 1.250000e-05 1.000000e-06 0.000000e+00 1.000000e+00 5.287503e-01 1.000122e+00
91 1 1.300000e-05 1.000000e-06 0.000000e+00 1.000000e+00 5.267091e-01 -9.998779e-01
92 1 1.350000e-05 1.000000e-06 0.000000e+00 1.000000e+00 5.262764e-01 1.000122e+00
93 1 1.400000e-05 1.000000e-06 0.000000e+00 1.000000e+00 5.265738e-01 -9.998779e-01
94 1 1.450000e-05 1.000000e-06 0.000000e+00 1.000000e+00 5.322342e-01 1.000122e+00
95 1 1.500000e-05 1.000000e-06 0.000000e+00 1.000000e+00 5.436713e-01 -9.998779e-01
96 1 1.550000e-05 1.000000e-06 0.000000e+00 1.000000e+00 7.354854e-01 1.000122e+00
97 1 0.000000e+00 1.500000e-06 0.000000e+00 1.000000e+00 7.217411e-01 1.000122e+00
98 1 5.000000e-07 1.500000e-06 0.000000e+00 1.000000e+00 5.392303e-01 -9.998779e-01
99 1 1.000000e-06 1.500000e-06 0.000000e+00 1.000000e+00 5.226984e-01 1.000122e+00
100 1 1.500000e-06 1.500000e-06 0.000000e+00 1.000000e+00 5.313838e-01 -9.998779e-01
101 1 2.000000e-06 1.500000e-06 0.000000e+00 1.000000e+00 5.321080e-01 1.000122e+00
102 1 2.500000e-06 1.500000e-06 0.000000e+00 1.000000e+00 5.291332e-01 -9.998779e-01
103 1 3.000000e-06 1.500000e-06 0.000000e+00 1.000000e+00 5.261999e-01 1.000122e+00
104 1 3.500000e-06 1.500000e-06 0.000000e+00 1.000000e+00 5.261950e-01 -9.998779e-01
105 1 4.000000e-06 1.500000e-06 0.000000e+00 1.000000e+00 5.349852e-01 1.000122e+00
106 1 4.500000e-06 1.500000e-06 0.000000e+00 1.000000e+00 5.383045e-01 -9.998779e-01
107 1 5.000000e-06 1.500000e-06 0.000000e+00 1.000000e+00 5.382031e-01 1.000122e+00
108 1 5.500000e-06 1.500000e-06 0.000000e+00 1.000000e+00 5.361586e-01 -9.998779e-01
109 1 6.000000e-06 1.500000e-06 0.000000e+00 1.000000e+00 5.246408e-01 1.000122e+00
110 1 6.500000e-06 1.500000e-06 0.000000e+00 1.000000e+00 5.324880e-01 -9.998779e-01
111 1 7.000000e-06 1.500000e-06 0.000000e+00 1.000000e+00 5.334337e-01 1.000122e+00
112 1 7.500000e-06 1.500000e-06 0.000000e+00 1.000000e+00 5.300377e-01 -9.998779e-01
113 1 8.000000e-06 1.500000e-06 0.000000e+00 1.000000e+00 5.288415e-01 1.000122e+00
114 1 8.500000e-06 1.500000e-06 0.000000e+00 1.000000e+00 5.258039e-01 -9.998779e-01
115 1 9.000000e-06 1.500000e-06 0.000000e+00 1.000000e+00 5.387269e-01 1.000122e+00
116 1 9.500000e-06 1.500000e-06 0.000000e+00 1.000000e+00 5.392737e-01 -9.998779e-01
117 1 1.000000e-05 1.500000e-06 0.000000e+00 1.000000e+00 5.348529e-01 1.000122e+00
118 1 1.050000e-05 1.500000e-06 0.000000e+00 1.000000e+00 5.392806e-01 -9.998779e-01
119 1 1.100000e-05 1.500000e-06 0.000000e+00 1.000000e+00 5.411555e-01 1.000122e+00
120 1 1.150000e-05 1.500000e-06 0.000000e+00 1.000000e+00 5.363397e-01 -9.998779e-01
121 1 1.200000e-05 1.500000e-06 0.000000e+00 1.000000e+00 5.501649e-01 1.000122e+00
122 1 1.250000e-05 1.500000e-06 0.000000e+00 1.000000e+00 5.589258e-01 -9.998779e-01
123 1 1.300000e-05 1.500000e-06 0.000000e+00 1.000000e+00 5.531522e-01 1.000122e+00
124 1 1.350000e-05 1.500000e-06 0.000000e+00 1.000000e+00 5.474893e-01 -9.998779e-01
125 1 1.400000e-05 1.500000e-06 0.000000e+00 1.000000e+00 5.424684e-01 1.000122e+00
126 1 1.450000e-05 1.500000e-06 0.000000e+00 1.000000e+00 5.485621e-01 -9.998779e-01
127 1 1.500000e-05 1.500000e-06 0.000000e+00 1.000000e+00 5.357467e-01 1.000122e+00
128 1 1.550000e-05 1.500000e-06 0.000000e+00 1.000000e+00 7.411866e-01 -9.998779e-01
129 1 0.000000e+00 2.000000e-06 0.000000e+00 1.000000e+00 7.298069e-01 -9.998779e-01
130 1 5.000000e-07 2.000000e-06 0.000000e+00 1.000000e+00 5.281913e-01 1.000122e+00
131 1 1.000000e-06 2.000000e-06 0.000000e+00 1.000000e+00 5.336246e-01 -9.998779e-01
132 1 1.500000e-06 2.000000e-06 0.000000e+00 1.000000e+00 5.305559e-01 1.000122e+00
133 1 2.000000e-06 2.000000e-06 0.000000e+00 1.000000e+00 5.221068e-01 -9.998779e-01
134 1 2.500000e-06 2.000000e-06 0.000000e+00 1.000000e+00 5.276057e-01 1.000122e+00
135 1 3.000000e-06 2.000000e-06 0.000000e+00 1.000000e+00 5.327422e-01 -9.998779e-01
136 1 3.500000e-06 2.000000e-06 0.000000e+00 1.000000e+00 5.262167e-01 1.000122e+00
137 1 4.000000e-06 2.000000e-06 0.000000e+00 1.000000e+00 5.364244e-01 -9.998779e-01
138 1 4.500000e-06 2.000000e-06 0.000000e+00 1.000000e+00 5.360004e-01 1.000122e+00
139 1 5.000000e-06 2.000000e-06 0.000000e+00 1.000000e+00 5.402174e-01 -9.998779e-01
140 1 5.500000e-06 2.000000e-06 0.000000e+00 1.000000e+00 5.180529e-01 1.000122e+00
141 1 6.000000e-06 2.000000e-06 0.000000e+00 1.000000e+00 5.342460e-01 -9.998779e-01
142 1 6.500000e-06 2.000000e-06 0.000000e+00 1.000000e+00 5.213239e-01 1.000122e+00
143 1 7.000000e-06 2.000000e-06 0.000000e+00 1.000000e+00 5.217894e-01 -9.998779e-01
144 1 7.500000e-06 2.000000e-06 0.000000e+00 1.000000e+00 5.249948e-01 1.000122e+00
145 1 8.000000e-06 2.000000e-06 0.000000e+00 1.000000e+00 5.260262e-01 -9.998779e-01
146 1 8.500000e-06 2.000000e-06 0.000000e+00 1.000000e+00 5.316830e-01 1.000122e+00
147 1 9.000000e-06 2.000000e-06 0.000000e+00 1.000000e+00 5.287588e-01 -9.998779e-01
148 1 9.500000e-06 2.000000e-06 0.000000e+00 1.000000e+00 5.188074e-01 1.000122e+00
149 1 1.000000e-05 2.000000e-06 0.000000e+00 1.000000e+00 5.461186e-01 -9.998779e-01
150 1 1.050000e-05 2.000000e-06 0.000000e+00 1.000000e+00 5.282287e-01 1.000122e+00
151 1 1.100000e-05 2.000000e-06 0.000000e+00 1.000000e+00 5.282385e-01 -9.998779e-01
152 1 1.150000e-05 2.000000e-06 0.000000e+00 1.000000e+00 5.431227e-01 1.000122e+00
153 1 1.200000e-05 2.000000e-06 0.000000e+00 1.000000e+00 5.484732e-01 -9.998779e-01
154 1 1.250000e-05 2.000000e-06 0.000000e+00 1.000000e+00 5.462470e-01 1.000122e+00
155 1 1.300000e-05 2.000000e-06 0.000000e+00 1.000000e+00 5.273154e-01 -9.998779e-01
156 1 1.350000e-05 2.000000e-06 0.000000e+00 1.000000e+00 5.313596e-01 1.000122e+00
157 1 1.400000e-05 2.000000e-06 0.000000e+00 1.000000e+00 5.311874e-01 -9.998779e-01
158 1 1.450000e-05 2.000000e-06 0.000000e+00 1.000000e+00 5.275523e-01 1.000122e+00
159 1 1.500000e-05 2.000000e-06 0.000000e+00 1.000000e+00 5.273308e-01 -9.998779e-01
160 1 1.550000e-05 2.000000e-06 0.000000e+00 1.000000e+00 7.397732e-01 1.000122e+00
161 1 0.000000e+00 2.500000e-06 0.000000e+00 1.000000e+00 7.367357e-01 1.000122e+00
162 1 5.000000e-07 2.500000e-06 0.000000e+00 1.000000e+00 5.359378e-01 -9.998779e-01
163 1 1.000000e-06 2.500000e-06 0.000000e+00 1.000000e+00 5.350842e-01 1.000122e+00
164 1 1.500000e-06 2.500000e-06 0.000000e+00 1.000000e+00 5.354110e-01 -9.998779e-01
165 1 2.000000e-06 2.500000e-06 0.000000e+00 1.000000e+00 5.292828e-01 1.000122e+00
166 1 2.500000e-06 2.500000e-06 0.000000e+00 1.000000e+00 5.205931e-01 -9.998779e-01
167 1 3.000000e-06 2.500000e-06 0.000000e+00 1.000000e+00 5.281865e-01 1.000122e+00
168 1 3.500000e-06 2.500000e-06 0.000000e+00 1.000000e+00 5.268852e-01 -9.998779e-01
169 1 4.000000e-06 2.500000e-06 0.000000e+00 1.000000e+00 5.325831e-01 1.000122e+00
170 1 4.500000e-06 2.500000e-06 0.000000e+00 1.000000e+00 5.318000e-01 -9.998779e-01
171 1 5.000000e-06 2.500000e-06 0.000000e+00 1.000000e+00 5.342954e-01 1.000122e+00
172 1 5.500000e-06 2.500000e-06 0.000000e+00 1.000000e+00 5.376571e-01 -9.998779e-01
173 1 6.000000e-06 2.500000e-06 0.000000e+00 1.000000e+00 5.361926e-01 1.000122e+00
174 1 6.500000e-06 2.500000e-06 0.000000e+00 1.000000e+00 5.366870e-01 -9.998779e-01
175 1 7.000000e-06 2.500000e-06 0.000000e+00 1.000000e+00 5.328312e-01 1.000122e+00
176 1 7.500000e-06 2.500000e-06 0.000000e+00 1.000000e+00 5.386614e-01 -9.998779e-01
177 1 8.000000e-06 2.500000e-06 0.000000e+00 1.000000e+00 5.400292e-01 1.000122e+00
178 1 8.500000e-06 2.500000e-06 0.000000e+00 1.000000e+00 5.415979e-01 -9.998779e-01
179 1 9.000000e-06 2.500000e-06 0.000000e+00 1.000000e+00 5.354745e-01 1.000122e+00
180 1 9.500000e-06 2.500000e-06 0.000000e+00 1.000000e+00 5.424053e-01 -9.998779e-01
181 1 1.000000e-05 2.500000e-06 0.000000e+00 1.000000e+00 5.292533e-01 1.000122e+00
182 1 1.050000e-05 2.500000e-06 0.000000e+00 1.000000e+00 5.437953e-01 -9.998779e-01
183 1 1.100000e-05 2.500000e-06 0.000000e+00 1.000000e+00 5.404758e-01 1.000122e+00
184 1 1.150000e-05 2.500000e-06 0.000000e+00 1.000000e+00 5.415162e-01 -9.998779e-01
185 1 1.200000e-05 2.500000e-06 0.000000e+00 1.000000e+00 5.590475e-01 1.000122e+00
186 1 1.250000e-05 2.500000e-06 0.000000e+00 1.000000e+00 5.435834e-01 -9.998779e-01
187 1 1.300000e-05 2.500000e-06 0.000000e+00 1.000000e+00 5.509566e-01 1.000122e+00
188 1 1.350000e-05 2.500000e-06 0.000000e+00 1.000000e+00 5.439026e-01 -9.998779e-01
189 1 1.400000e-05 2.500000e-06 0.000000e+00 1.000000e+00 5.416796e-01 1.000122e+00
190 1 1.450000e-05 2.500000e-06 0.000000e+00 1.000000e+00 5.356524e-01 -9.998779e-01
191 1 1.500000e-05 2.500000e-06 0.000000e+00 1.000000e+00 5.392662e-01 1.000122e+00
192 1 1.550000e-05 2.500000e-06 0.000000e+00 1.000000e+00 7.357775e-01 -9.998779e-01
193 1 0.000000e+00 3.000000e-06 0.000000e+00 1.000000e+00 7.489332e-01 -9.998779e-01
194 1 5.000000e-07 3.000000e-06 0.000000e+00 1.000000e+00 5.269037e-01 1.000122e+00
195 1 1.000000e-06 3.000000e-06 0.000000e+00 1.000000e+00 5.299756e-01 -9.998779e-01
196 1 1.500000e-06 3.000000e-06 0.000000e+00 1.000000e+00 5.314032e-01 1.000122e+00
197 1 2.000000e-06 3.000000e-06 0.000000e+00 1.000000e+00 5.201880e-01 -9.998779e-01
198 1 2.500000e-06 3.000000e-06 0.000000e+00 1.000000e+00 5.202256e-01 1.000122e+00
199 1 3.000000e-06 3.000000e-06 0.000000e+00 1.000000e+00 5.277373e-01 -9.998779e-01
200 1 3.500000e-06 3.000000e-06 0.000000e+00 1.000000e+00 5.297841e-01 1.000122e+00
201 1 4.000000e-06 3.000000e-06 0.000000e+00 1.000000e+00 5.262146e-01 -9.998779e-01
202 1 4.500000e-06 3.000000e-06 0.000000e+00 1.000000e+00 5.325928e-01 1.000122e+00
203 1 5.000000e-06 3.000000e-06 0.000000e+00 1.000000e+00 5.433962e-01 -9.998779e-01
204 1 5.500000e-06 3.000000e-06 0.000000e+00 1.000000e+00 5.381213e-01 1.000122e+00
205 1 6.000000e-06 3.000000e-06 0.000000e+00 1.000000e+00 5.370827e-01 -9.998779e-01
206 1 6.500000e-06 3.000000e-06 0.000000e+00 1.000000e+00 5.399984e-01 1.000122e+00
207 1 7.000000e-06 3.000000e-06 0.000000e+00 1.000000e+00 5.458861e-01 -9.998779e-01
208 1 7.500000e-06 3.000000e-06 0.000000e+00 1.000000e+00 5.278642e-01 1.000122e+00
209 1 8.000000e-06 3.000000e-06 0.000000e+00 1.000000e+00 5.160176e-01 -9.998779e-01
210 1 8.500000e-06 3.000000e-06 0.000000e+00 1.000000e+00 5.186632e-01 1.000122e+00
211 1 9.000000e-06 3.000000e-06 0.000000e+00 1.000000e+00 5.184294e-01 -9.998779e-01
212 1 9.500000e-06 3.000000e-06 0.000000e+00 1.000000e+00 5.338558e-01 1.000122e+00
213 1 1.000000e-05 3.000000e-06 0.000000e+00 1.000000e+00 5.184656e-01 -9.998779e-01
214 1 1.050000e-05 3.000000e-06 0.000000e+00 1.000000e+00 5.296280e-01 1.000122e+00
215 1 1.100000e-05 3.000000e-06 0.000000e+00 1.000000e+00 5.513748e-01 -9.998779e-01
216 1 1.150000e-05 3.000000e-06 0.000000e+00 1.000000e+00 5.551889e-01 1.000122e+00
217 1 1.200000e-05 3.000000e-06 0.000000e+00 1.000000e+00 5.330196e-01 -9.998779e-01
218 1 1.250000e-05 3.000000e-06 0.000000e+00 1.000000e+00 5.372906e-01 1.000122e+00
219 1 1.300000e-05 3.000000e-06 0.000000e+00 1.000000e+00 5.431545e-01 -9.998779e-01
220 1 1.350000e-05 3.000000e-06 0.000000e+00 1.000000e+00 5.416364e-01 1.000122e+00
221 1 1.400000e-05 3.000000e-06 0.000000e+00 1.000000e+00 5.390768e-01 -9.998779e-01
222 1 1.450000e-05 3.000000e-06 0.000000e+00 1.000000e+00 5.416621e-01 1.000122e+00
223 1 1.500000e-05 3.000000e-06 0.000000e+00 1.000000e+00 5.404101e-01 -9.998779e-01
224 1 1.550000e-05 3.000000e-06 0.000000e+00 1.000000e+00 7.577478e-01 1.000122e+00
225 1 0.000000e+00 3.500000e-06 0.000000e+00 1.000000e+00 7.441586e-01 1.000122e+00
226 1 5.000000e-07 3.500000e-06 0.000000e+00 1.000000e+00 5.262009e-01 -9.998779e-01
227 1 1.000000e-06 3.500000e-06 0.000000e+00 1.000000e+00 5.261867e-01 1.000122e+00
228 1 1.500000e-06 3.500000e-06 0.000000e+00 1.000000e+00 5.268667e-01 -9.998779e-01
229 1 2.000000e-06 3.500000e-06 0.000000e+00 1.000000e+00 5.233520e-01 1.000122e+00
230 1 2.500000e-06 3.500000e-06 0.000000e+00 1.000000e+00 5.224713e-01 -9.998779e-01
231 1 3.000000e-06 3.500000e-06 0.000000e+00 1.000000e+00 5.239316e-01 1.000122e+00
232 1 3.500000e-06 3.500000e-06 0.000000e+00 1.000000e+00 5.241812e-01 -9.998779e-01
233 1 4.000000e-06 3.500000e-06 0.000000e+00 1.000000e+00 5.196407e-01 1.000122e+00
234 1 4.500000e-06 3.500000e-06 0.000000e+00 1.000000e+00 5.012775e-01 -9.998779e-01
235 1 5.000000e-06 3.500000e-06 0.000000e+00 1.000000e+00 5.181056e-01 1.000122e+00
236 1 5.500000e-06 3.500000e-06 0.000000e+00 1.000000e+00 5.362706e-01 -9.998779e-01
237 1 6.000000e-06 3.500000e-06 0.000000e+00 1.000000e+00 5.268779e-01 1.000122e+00
238 1 6.500000e-06 3.500000e-06 0.000000e+00 1.000000e+00 5.269136e-01 -9.998779e-01
239 1 7.000000e-06 3.500000e-06 0.000000e+00 1.000000e+00 5.268738e-01 1.000122e+00
240 1 7.500000e-06 3.500000e-06 0.000000e+00 1.000000e+00 5.186132e-01 -9.998779e-01
241 1 8.000000e-06 3.500000e-06 0.000000e+00 1.000000e+00 5.276549e-01 1.000122e+00
242 1 8.500000e-06 3.500000e-06 0.000000e+00 1.000000e+00 5.172800e-01 -9.998779e-01
243 1 9.000000e-06 3.500000e-06 0.000000e+00 1.000000e+00 5.320354e-01 1.000122e+00
244 1 9.500000e-06 3.500000e-06 0.000000e+00 1.000000e+00 5.199661e-01 -9.998779e-01
245 1 1.000000e-05 3.500000e-06 0.000000e+00 1.000000e+00 5.170594e-01 1.000122e+00
246 1 1.050000e-05 3.500000e-06 0.000000e+00 1.000000e+00 5.072213e-01 -9.998779e-01
247 1 1.100000e-05 3.500000e-06 0.000000e+00 1.000000e+00 5.245615e-01 1.000122e+00
248 1 1.150000e-05 3.500000e-06 0.000000e+00 1.000000e+00 5.374402e-01 -9.998779e-01
249 1 1.200000e-05 3.500000e-06 0.000000e+00 1.000000e+00 5.261928e-01 1.000122e+00
250 1 1.250000e-05 3.500000e-06 0.000000e+00 1.000000e+00 5.291353e-01 -9.998779e-01
251 1 1.300000e-05 3.500000e-06 0.000000e+00 1.000000e+00 5.288965e-01 1.000122e+00
252 1 1.350000e-05 3.500000e-06 0.000000e+00 1.000000e+00 5.250251e-01 -9.998779e-01
253 1 1.400000e-05 3.500000e-06 0.000000e+00 1.000000e+00 5.189418e-01 1.000122e+00
254 1 1.450000e-05 3.500000e-06 0.000000e+00 1.000000e+00 5.198917e-01 -9.998779e-01
255 1 1.500000e-05 3.500000e-06 0.000000e+00 1.000000e+00 5.182287e-01 1.000122e+00
256 1 1.550000e-05 3.500000e-06 0.000000e+00 1.000000e+00 7.435261e-01 -9.998779e-01
257 1 0.000000e+00 4.000000e-06 0.000000e+00 1.000000e+00 7.451785e-01 -9.998779e-01
258 1 5.000000e-07 4.000000e-06 0.000000e+00 1.000000e+00 5.268971e-01 1.000122e+00
259 1 1.000000e-06 4.000000e-06 0.000000e+00 1.000000e+00 5.268826e-01 -9.998779e-01
260 1 1.500000e-06 4.000000e-06 0.000000e+00 1.000000e+00 5.282429e-01 1.000122e+00
261 1 2.000000e-06 4.000000e-06 0.000000e+00 1.000000e+00 5.264409e-01 -9.998779e-01
262 1 2.500000e-06 4.000000e-06 0.000000e+00 1.000000e+00 5.276425e-01 1.000122e+00
263 1 3.000000e-06 4.000000e-06 0.000000e+00 1.000000e+00 5.351561e-01 -9.998779e-01
264 1 3.500000e-06 4.000000e-06 0.000000e+00 1.000000e+00 5.368420e-01 1.000122e+00
265 1 4.000000e-06 4.000000e-06 0.000000e+00 1.000000e+00 5.322028e-01 -9.998779e-01
266 1 4.500000e-06 4.000000e-06 0.000000e+00 1.000000e+00 5.447998e-01 1.000122e+00
267 1 5.000000e-06 4.000000e-06 0.000000e+00 1.000000e+00 5.406166e-01 -9.998779e-01
268 1 5.500000e-06 4.000000e-06 0.000000e+00 1.000000e+00 5.360789e-01 1.000122e+00
269 1 6.000000e-06 4.000000e-06 0.000000e+00 1.000000e+00 5.375950e-01 -9.998779e-01
270 1 6.500000e-06 4.000000e-06 0.000000e+00 1.000000e+00 5.262075e-01 1.000122e+00
271 1 7.000000e-06 4.000000e-06 0.000000e+00 1.000000e+00 5.334914e-01 -9.998779e-01
272 1 7.500000e-06 4.000000e-06 0.000000e+00 1.000000e+00 5.350248e-01 1.000122e+00
273 1 8.000000e-06 4.000000e-06 0.000000e+00 1.000000e+00 5.328373e-01 -9.998779e-01
274 1 8.500000e-06 4.000000e-06 0.000000e+00 1.000000e+00 5.274804e-01 1.000122e+00
275 1 9.000000e-06 4.000000e-06 0.000000e+00 1.000000e+00 5.297839e-01 -9.998779e-01
276 1 9.500000e-06 4.000000e-06 0.000000e+00 1.000000e+00 5.262271e-01 1.000122e+00
277 1 1.000000e-05 4.000000e-06 0.000000e+00 1.000000e+00 5.262160e-01 -9.998779e-01
278 1 1.050000e-05 4.000000e-06 0.000000e+00 1.000000e+00 5.253127e-01 1.000122e+00
279 1 1.100000e-05 4.000000e-06 0.000000e+00 1.000000e+00 5.241007e-01 -9.998779e-01
280 1 1.150000e-05 4.000000e-06 0.000000e+00 1.000000e+00 5.274713e-01 1.000122e+00
281 1 1.200000e-05 4.000000e-06 0.000000e+00 1.000000e+00 5.328080e-01 -9.998779e-01
282 1 1.250000e-05 4.000000e-06 0.000000e+00 1.000000e+00 5.320863e-01 1.000122e+00
283 1 1.300000e-05 4.000000e-06 0.000000e+00 1.000000e+00 5.305516e-01 -9.998779e-01
284 1 1.350000e-05 4.000000e-06 0.000000e+00 1.000000e+00 5.270458e-01 1.000122e+00
285 1 1.400000e-05 4.000000e-06 0.000000e+00 1.000000e+00 5.293677e-01 -9.998779e-01
286 1 1.450000e-05 4.000000e-06 0.000000e+00 1.000000e+00 5.284626e-01 1.000122e+00
287 1 1.500000e-05 4.000000e-06 0.000000e+00 1.000000e+00 5.277270e-01 -9.998779e-01
288 1 1.550000e-05 4.000000e-06 0.000000e+00 1.000000e+00 7.462917e-01 1.000122e+00
289 1 0.000000e+00 4.500000e-06 0.000000e+00 1.000000e+00 7.415228e-01 1.000122e+00
290 1 5.000000e-07 4.500000e-06 0.000000e+00 1.000000e+00 5.269480e-01 -9.998779e-01
291 1 1.000000e-06 4.500000e-06 0.000000e+00 1.000000e+00 5.269326e-01 1.000122e+00
292 1 1.500000e-06 4.500000e-06 0.000000e+00 1.000000e+00 5.269454e-01 -9.998779e-01
293 1 2.000000e-06 4.500000e-06 0.000000e+00 1.000000e+00 5.285858e-01 1.000122e+00
294 1 2.500000e-06 4.500000e-06 0.000000e+00 1.000000e+00 5.248946e-01 -9.998779e-01
295 1 3.000000e-06 4.500000e-06 0.000000e+00 1.000000e+00 5.402985e-01 1.000122e+00
296 1 3.500000e-06 4.500000e-06 0.000000e+00 1.000000e+00 5.335128e-01 -9.998779e-01
297 1 4.000000e-06 4.500000e-06 0.000000e+00 1.000000e+00 5.324085e-01 1.000122e+00
298 1 4.500000e-06 4.500000e-06 0.000000e+00 1.000000e+00 5.188823e-01 -9.998779e-01
299 1 5.000000e-06 4.500000e-06 0.000000e+00 1.000000e+00 5.326219e-01 1.000122e+00
300 1 5.500000e-06 4.500000e-06 0.000000e+00 1.000000e+00 5.303866e-01 -9.998779e-01
301 1 6.000000e-06 4.500000e-06 0.000000e+00 1.000000e+00 5.252843e-01 1.000122e+00
302 1 6.500000e-06 4.500000e-06 0.000000e+00 1.000000e+00 5.276269e-01 -9.998779e-01
303 1 7.000000e-06 4.500000e-06 0.000000e+00 1.000000e+00 5.268615e-01 1.000122e+00
304 1 7.500000e-06 4.500000e-06 0.000000e+00 1.000000e+00 5.289013e-01 -9.998779e-01
305 1 8.000000e-06 4.500000e-06 0.000000e+00 1.000000e+00 5.319783e-01 1.000122e+00
306 1 8.500000e-06 4.500000e-06 0.000000e+00 1.000000e+00 5.311827e-01 -9.998779e-01
307 1 9.000000e-06 4.500000e-06 0.000000e+00 1.000000e+00 5.261855e-01 1.000122e+00
308 1 9.500000e-06 4.500000e-06 0.000000e+00 1.000000e+00 5.291336e-01 -9.998779e-01
309 1 1.000000e-05 4.500000e-06 0.000000e+00 1.000000e+00 5.241167e-01 1.000122e+00
310 1 1.050000e-05 4.500000e-06 0.000000e+00 1.000000e+00 5.289048e-01 -9.998779e-01
311 1 1.100000e-05 4.500000e-06 0.000000e+00 1.000000e+00 5.235368e-01 1.000122e+00
312 1 1.150000e-05 4.500000e-06 0.000000e+00 1.000000e+00 5.252797e-01 -9.998779e-01
313 1 1.200000e-05 4.500000e-06 0.000000e+00 1.000000e+00 5.268930e-01 1.000122e+00
314 1 1.250000e-05 4.500000e-06 0.000000e+00 1.000000e+00 5.311697e-01 -9.998779e-01
315 1 1.300000e-05 4.500000e-06 0.000000e+00 1.000000e+00 5.293666e-01 1.000122e+00
316 1 1.350000e-05 4.500000e-06 0.000000e+00 1.000000e+00 5.253199e-01 -9.998779e-01
317 1 1.400000e-05 4.500000e-06 0.000000e+00 1.000000e+00 5.198003e-01 1.000122e+00
318 1 1.450000e-05 4.500000e-06 0.000000e+00 1.000000e+00 5.245435e-01 -9.998779e-01
319 1 1.500000e-05 4.500000e-06 0.000000e+00 1.000000e+00 5.316147e-01 1.000122e+00
320 1 1.550000e-05 4.500000e-06 0.000000e+00 1.000000e+00 7.498209e-01 -9.998779e-01
321 1 0.000000e+00 5.000000e-06 0.000000e+00 1.000000e+00 7.451852e-01 -9.998779e-01
322 1 5.000000e-07 5.000000e-06 0.000000e+00 1.000000e+00 5.268668e-01 1.000122e+00
323 1 1.000000e-06 5.000000e-06 0.000000e+00 1.000000e+00 5.268796e-01 -9.998779e-01
324 1 1.500000e-06 5.000000e-06 0.000000e+00 1.000000e+00 5.253204e-01 1.000122e+00
325 1 2.000000e-06 5.000000e-06 0.000000e+00 1.000000e+00 5.256291e-01 -9.998779e-01
326 1 2.500000e-06 5.000000e-06 0.000000e+00 1.000000e+00 5.262448e-01 1.000122e+00
327 1 3.000000e-06 5.000000e-06 0.000000e+00 1.000000e+00 5.326908e-01 -9.998779e-01
328 1 3.500000e-06 5.000000e-06 0.000000e+00 1.000000e+00 5.364265e-01 1.000122e+00
329 1 4.000000e-06 5.000000e-06 0.000000e+00 1.000000e+00 5.368763e-01 -9.998779e-01
330 1 4.500000e-06 5.000000e-06 0.000000e+00 1.000000e+00 5.144506e-01 1.000122e+00
331 1 5.000000e-06 5.000000e-06 0.000000e+00 1.000000e+00 5.240132e-01 -9.998779e-01
332 1 5.500000e-06 5.000000e-06 0.000000e+00 1.000000e+00 5.320493e-01 1.000122e+00
333 1 6.000000e-06 5.000000e-06 0.000000e+00 1.000000e+00 5.280174e-01 -9.998779e-01
334 1 6.500000e-06 5.000000e-06 0.000000e+00 1.000000e+00 5.268772e-01 1.000122e+00
335 1 7.000000e-06 5.000000e-06 0.000000e+00 1.000000e+00 5.262236e-01 -9.998779e-01
336 1 7.500000e-06 5.000000e-06 0.000000e+00 1.000000e+00 5.269032e-01 1.000122e+00
337 1 8.000000e-06 5.000000e-06 0.000000e+00 1.000000e+00 5.305646e-01 -9.998779e-01
338 1 8.500000e-06 5.000000e-06 0.000000e+00 1.000000e+00 5.321158e-01 1.000122e+00
339 1 9.000000e-06 5.000000e-06 0.000000e+00 1.000000e+00 5.262141e-01 -9.998779e-01
340 1 9.500000e-06 5.000000e-06 0.000000e+00 1.000000e+00 5.320692e-01 1.000122e+00
341 1 1.000000e-05 5.000000e-06 0.000000e+00 1.000000e+00 5.305169e-01 -9.998779e-01
342 1 1.050000e-05 5.000000e-06 0.000000e+00 1.000000e+00 5.312366e-01 1.000122e+00
343 1 1.100000e-05 5.000000e-06 0.000000e+00 1.000000e+00 5.328164e-01 -9.998779e-01
344 1 1.150000e-05 5.000000e-06 0.000000e+00 1.000000e+00 5.270309e-01 1.000122e+00
345 1 1.200000e-05 5.000000e-06 0.000000e+00 1.000000e+00 5.262097e-01 -9.998779e-01
346 1 1.250000e-05 5.000000e-06 0.000000e+00 1.000000e+00 5.305397e-01 1.000122e+00
347 1 1.300000e-05 5.000000e-06 0.000000e+00 1.000000e+00 5.343115e-01 -9.998779e-01
348 1 1.350000e-05 5.000000e-06 0.000000e+00 1.000000e+00 5.172231e-01 1.000122e+00
349 1 1.400000e-05 5.000000e-06 0.000000e+00 1.000000e+00 5.140043e-01 -9.998779e-01
350 1 1.450000e-05 5.000000e-06 0.000000e+00 1.000000e+00 5.206964e-01 1.000122e+00
351 1 1.500000e-05 5.000000e-06 0.000000e+00 1.000000e+00 5.227925e-01 -9.998779e-01
352 1 1.550000e-05 5.000000e-06 0.000000e+00 1.000000e+00 7.399384e-01 1.000122e+00
353 1 0.000000e+00 5.500000e-06 0.000000e+00 1.000000e+00 7.392152e-01 1.000122e+00
354 1 5.000000e-07 5.500000e-06 0.000000e+00 1.000000e+00 5.205279e-01 -9.998779e-01