ITEM: TIMESTEP
14
ITEM: NUMBER OF ATOMS
16384
ITEM: BOX BOUNDS pp pp pp
0.0 1.600000e-05
0.0 1.600000e-05
0.0 8.000000e-06
ITEM: ATOMS id type x y z crack plastic psi
1 1 0.000000e+00 0.000000e+00 0.000000e+00 1.000000e+00 9.164059e-01 -1.000000e+00
2 1 5.000000e-07 0.000000e+00 0.000000e+00 1.000000e+00 7.804652e-01 1.000000e+00
3 1 1.000000e-06 0.000000e+00 0.000000e+00 1.000000e+00 7.709474e-01 -1.000000e+00
4 1 1.500000e-06 0.000000e+00 0.000000e+00 1.000000e+00 7.675109e-01 1.000000e+00
5 1 2.000000e-06 0.000000e+00 0.000000e+00 1.000000e+00 7.674892e-01 -1.000000e+00
6 1 2.500000e-06 0.000000e+00 0.000000e+00 1.000000e+00 7.657746e-01 1.000000e+00
7 1 3.000000e-06 0.000000e+00 0.000000e+00 1.000000e+00 7.690550e-01 -1.000000e+00
8 1 3.500000e-06 0.000000e+00 0.000000e+00 1.000000e+00 7.690450e-01 1.000000e+00
9 1 4.000000e-06 0.000000e+00 0.000000e+00 1.000000e+00 7.690358e-01 -1.000000e+00
10 1 4.500000e-06 0.000000e+00 0.000000e+00 1.000000e+00 7.638875e-01 1.000000e+00
11 1 5.000000e-06 0.000000e+00 0.000000e+00 1.000000e+00 7.670724e-01 -1.000000e+00
12 1 5.500000e-06 0.000000e+00 0.000000e+00 1.000000e+00 7.632889e-01 1.000000e+00
13 1 6.000000e-06 0.000000e+00 0.000000e+00 1.000000e+00 7.632267e-01 -1.000000e+00
14 1 6.500000e-06 0.000000e+00 0.000000e+00 1.000000e+00 7.690357e-01 1.000000e+00
15 1 7.000000e-06 0.000000e+00 0.000000e+00 1.000000e+00 7.745304e-01 -1.000000e+00
16 1 7.500000e-06 0.000000e+00 0.000000e+00 1.000000e+00 7.790720e-01 1.000000e+00
17 1 8.000000e-06 0.000000e+00 0.000000e+00 1.000000e+00 7.725974e-01 -1.000000e+00
18 1 8.500000e-06 0.000000e+00 0.000000e+00 1.000000e+00 7.697483e-01 1.000000e+00
19 1 9.000000e-06 0.000000e+00 0.000000e+00 1.000000e+00 7.747443e-01 -1.000000e+00
20 1 9.500000e-06 0.000000e+00 0.000000e+00 1.000000e+00 7.717337e-01 1.000000e+00
21 1 1.000000e-05 0.000000e+00 0.000000e+00 1.000000e+00 7.791209e-01 -1.000000e+00
22 1 1.050000e-05 0.000000e+00 0.000000e+00 1.000000e+00 7.763785e-01 1.000000e+00
23 1 1.100000e-05 0.000000e+00 0.000000e+00 1.000000e+00 7.642694e-01 -1.000000e+00
24 1 1.150000e-05 0.000000e+00 0.000000e+00 1.000000e+00 7.408777e-01 1.000000e+00
25 1 1.200000e-05 0.000000e+00 0.000000e+00 1.000000e+00 7.631901e-01 -1.000000e+00
26 1 1.250000e-05 0.000000e+00 0.000000e+00 1.000000e+00 7.741705e-01 1.000000e+00
27 1 1.300000e-05 0.000000e+00 0.000000e+00 1.000000e+00 7.763271e-01 -1.000000e+00
28 1 1.350000e-05 0.000000e+00 0.000000e+00 1.000000e+00 7.738990e-01 1.000000e+00
29 1 1.400000e-05 0.000000e+00 0.000000e+00 1.000000e+00 7.719817e-01 -1.000000e+00
30 1 1.450000e-05 0.000000e+00 0.000000e+00 1.000000e+00 7.649898e-01 1.000000e+00
31 1 1.500000e-05 0.000000e+00 0.000000e+00 1.000000e+00 7.752994e-01 -1.000000e+00
32 1 1.550000e-05 0.000000e+00 0.000000e+00 1.000000e+00 9.320377e-01 1.000000e+00
33 1 0.000000e+00 5.000000e-07 0.000000e+00 1.000000e+00 7.322020e-01 1.000000e+00
34 1 5.000000e-07 5.000000e-07 0.000000e+00 1.000000e+00 5.476558e-01 -1.000000e+00
35 1 1.000000e-06 5.000000e-07 0.000000e+00 1.000000e+00 5.359317e-01 1.000000e+00
36 1 1.500000e-06 5.000000e-07 0.000000e+00 1.000000e+00 5.377726e-01 -1.000000e+00
37 1 2.000000e-06 5.000000e-07 0.000000e+00 1.000000e+00 5.375431e-01 1.000000e+00
38 1 2.500000e-06 5.000000e-07 0.000000e+00 1.000000e+00 5.396161e-01 -1.000000e+00
39 1 3.000000e-06 5.000000e-07 0.000000e+00 1.000000e+00 5.352530e-01 1.000000e+00
40 1 3.500000e-06 5.000000e-07 0.000000e+00 1.000000e+00 5.400674e-01 -1.000000e+00
41 1 4.000000e-06 5.000000e-07 0.000000e+00 1.000000e+00 5.404006e-01 1.000000e+00
42 1 4.500000e-06 5.000000e-07 0.000000e+00 1.000000e+00 5.383364e-01 -1.000000e+00
43 1 5.000000e-06 5.000000e-07 0.000000e+00 1.000000e+00 5.337323e-01 1.000000e+00
44 1 5.500000e-06 5.000000e-07 0.000000e+00 1.000000e+00 5.255006e-01 -1.000000e+00
45 1 6.000000e-06 5.000000e-07 0.000000e+00 1.000000e+00 5.328981e-01 1.000000e+00
46 1 6.500000e-06 5.000000e-07 0.000000e+00 1.000000e+00 5.457109e-01 -1.000000e+00
47 1 7.000000e-06 5.000000e-07 0.000000e+00 1.000000e+00 5.476401e-01 1.000000e+00
48 1 7.500000e-06 5.000000e-07 0.000000e+00 1.000000e+00 5.665752e-01 -1.000000e+00
49 1 8.000000e-06 5.000000e-07 0.000000e+00 1.000000e+00 5.491516e-01 1.000000e+00
50 1 8.500000e-06 5.000000e-07 0.000000e+00 1.000000e+00 5.424068e-01 -1.000000e+00
51 1 9.000000e-06 5.000000e-07 0.000000e+00 1.000000e+00 5.387243e-01 1.000000e+00
52 1 9.500000e-06 5.000000e-07 0.000000e+00 1.000000e+00 5.550183e-01 -1.000000e+00
53 1 1.000000e-05 5.000000e-07 0.000000e+00 1.000000e+00 5.505849e-01 1.000000e+00
54 1 1.050000e-05 5.000000e-07 0.000000e+00 1.000000e+00 5.351279e-01 -1.000000e+00
55 1 1.100000e-05 5.000000e-07 0.000000e+00 1.000000e+00 5.551367e-01 1.000000e+00
56 1 1.150000e-05 5.000000e-07 0.000000e+00 1.000000e+00 5.539060e-01 -1.000000e+00
57 1 1.200000e-05 5.000000e-07 0.000000e+00 1.000000e+00 5.477500e-01 1.000000e+00
58 1 1.250000e-05 5.000000e-07 0.000000e+00 1.000000e+00 5.344342e-01 -1.000000e+00
59 1 1.300000e-05 5.000000e-07 0.000000e+00 1.000000e+00 5.427101e-01 1.000000e+00
60 1 1.350000e-05 5.000000e-07 0.000000e+00 1.000000e+00 5.398191e-01 -1.000000e+00
61 1 1.400000e-05 5.000000e-07 0.000000e+00 1.000000e+00 5.406924e-01 1.000000e+00
62 1 1.450000e-05 5.000000e-07 0.000000e+00 1.000000e+00 5.531512e-01 -1.000000e+00
63 1 1.500000e-05 5.000000e-07 0.000000e+00 1.000000e+00 5.556176e-01 1.000000e+00
64 1 1.550000e-05 5.000000e-07 0.000000e+00 1.000000e+00 7.562253e-01 -1.000000e+00
65 1 0.000000e+00 1.000000e-06 0.000000e+00 1.000000e+00 7.439815e-01 -1.000000e+00
66 1 5.000000e-07 1.000000e-06 0.000000e+00 1.000000e+00 5.544242e-01 1.000000e+00
67 1 1.000000e-06 1.000000e-06 0.000000e+00 1.000000e+00 5.377014e-01 -1.000000e+00
68 1 1.500000e-06 1.000000e-06 0.000000e+00 1.000000e+00 5.359325e-01 1.000000e+00
69 1 2.000000e-06 1.000000e-06 0.000000e+00 1.000000e+00 5.351037e-01 -1.000000e+00
70 1 2.500000e-06 1.000000e-06 0.000000e+00 1.000000e+00 5.352461e-01 1.000000e+00
71 1 3.000000e-06 1.000000e-06 0.000000e+00 1.000000e+00 5.313021e-01 -1.000000e+00
72 1 3.500000e-06 1.000000e-06 0.000000e+00 1.000000e+00 5.404101e-01 1.000000e+00
73 1 4.000000e-06 1.000000e-06 0.000000e+00 1.000000e+00 5.472880e-01 -1.000000e+00
74 1 4.500000e-06 1.000000e-06 0.000000e+00 1.000000e+00 5.545070e-01 1.000000e+00
75 1 5.000000e-06 1.000000e-06 0.000000e+00 1.000000e+00 5.527223e-01 -1.000000e+00
76 1 5.500000e-06 1.000000e-06 0.000000e+00 1.000000e+00 5.471252e-01 1.000000e+00
77 1 6.000000e-06 1.000000e-06 0.000000e+00 1.000000e+00 5.527318e-01 -1.000000e+00
78 1 6.500000e-06 1.000000e-06 0.000000e+00 1.000000e+00 5.359521e-01 1.000000e+00
79 1 7.000000e-06 1.000000e-06 0.000000e+00 1.000000e+00 5.318069e-01 -1.000000e+00
80 1 7.500000e-06 1.000000e-06 0.000000e+00 1.000000e+00 5.520357e-01 1.000000e+00
81 1 8.000000e-06 1.000000e-06 0.000000e+00 1.000000e+00 5.415065e-01 -1.000000e+00
82 1 8.500000e-06 1.000000e-06 0.000000e+00 1.000000e+00 5.420808e-01 1.000000e+00
83 1 9.000000e-06 1.000000e-06 0.000000e+00 1.000000e+00 5.548556e-01 -1.000000e+00
84 1 9.500000e-06 1.000000e-06 0.000000e+00 1.000000e+00 5.611539e-01 1.000000e+00
85 1 1.000000e-05 1.000000e-06 0.000000e+00 1.000000e+00 5.508910e-01 -1.000000e+00
86 1 1.050000e-05 1.000000e-06 0.000000e+00 1.000000e+00 5.419592e-01 1.000000e+00
87 1 1.100000e-05 1.000000e-06 0.000000e+00 1.000000e+00 5.551796e-01 -1.000000e+00
88 1 1.150000e-05 1.000000e-06 0.000000e+00 1.000000e+00 5.409943e-01 1.000000e+00
89 1 1.200000e-05 1.000000e-06 0.000000e+00 1.000000e+00 5.521818e-01 -1.000000e+00
90 1 1.250000e-05 1.000000e-06 0.000000e+00 1.000000e+00 5.454639e-01 1.000000e+00
91 1 1.300000e-05 1.000000e-06 0.000000e+00 1.000000e+00 5.441246e-01 -1.000000e+00
92 1 1.350000e-05 1.000000e-06 0.000000e+00 1.000000e+00 5.438407e-01 1.000000e+00
93 1 1.400000e-05 1.000000e-06 0.000000e+00 1.000000e+00 5.440358e-01 -1.000000e+00
94 1 1.450000e-05 1.000000e-06 0.000000e+00 1.000000e+00 5.477496e-01 1.000000e+00
95 1 1.500000e-05 1.000000e-06 0.000000e+00 1.000000e+00 5.552535e-01 -1.000000e+00
96 1 1.550000e-05 1.000000e-06 0.000000e+00 1.000000e+00 7.633451e-01 1.000000e+00
97 1 0.000000e+00 1.500000e-06 0.000000e+00 1.000000e+00 7.543275e-01 1.000000e+00
98 1 5.000000e-07 1.500000e-06 0.000000e+00 1.000000e+00 5.523398e-01 -1.000000e+00
99 1 1.000000e-06 1.500000e-06 0.000000e+00 1.000000e+00 5.414932e-01 1.000000e+00
100 1 1.500000e-06 1.500000e-06 0.000000e+00 1.000000e+00 5.471917e-01 -1.000000e+00
101 1 2.000000e-06 1.500000e-06 0.000000e+00 1.000000e+00 5.476668e-01 1.000000e+00
102 1 2.500000e-06 1.500000e-06 0.000000e+00 1.000000e+00 5.457150e-01 -1.000000e+00
103 1 3.000000e-06 1.500000e-06 0.000000e+00 1.000000e+00 5.437905e-01 1.000000e+00
104 1 3.500000e-06 1.500000e-06 0.000000e+00 1.000000e+00 5.437873e-01 -1.000000e+00
105 1 4.000000e-06 1.500000e-06 0.000000e+00 1.000000e+00 5.495545e-01 1.000000e+00
106 1 4.500000e-06 1.500000e-06 0.000000e+00 1.000000e+00 5.517323e-01 -1.000000e+00
107 1 5.000000e-06 1.500000e-06 0.000000e+00 1.000000e+00 5.516658e-01 1.000000e+00
108 1 5.500000e-06 1.500000e-06 0.000000e+00 1.000000e+00 5.503244e-01 -1.000000e+00
109 1 6.000000e-06 1.500000e-06 0.000000e+00 1.000000e+00 5.427676e-01 1.000000e+00
110 1 6.500000e-06 1.500000e-06 0.000000e+00 1.000000e+00 5.479162e-01 -1.000000e+00
111 1 7.000000e-06 1.500000e-06 0.000000e+00 1.000000e+00 5.485366e-01 1.000000e+00
112 1 7.500000e-06 1.500000e-06 0.000000e+00 1.000000e+00 5.463085e-01 -1.000000e+00
113 1 8.000000e-06 1.500000e-06 0.000000e+00 1.000000e+00 5.455237e-01 1.000000e+00
114 1 8.500000e-06 1.500000e-06 0.000000e+00 1.000000e+00 5.435307e-01 -1.000000e+00
115 1 9.000000e-06 1.500000e-06 0.000000e+00 1.000000e+00 5.520094e-01 1.000000e+00
116 1 9.500000e-06 1.500000e-06 0.000000e+00 1.000000e+00 5.523682e-01 -1.000000e+00
117 1 1.000000e-05 1.500000e-06 0.000000e+00 1.000000e+00 5.494677e-01 1.000000e+00
118 1 1.050000e-05 1.500000e-06 0.000000e+00 1.000000e+00 5.523728e-01 -1.000000e+00
119 1 1.100000e-05 1.500000e-06 0.000000e+00 1.000000e+00 5.536029e-01 1.000000e+00
120 1 1.150000e-05 1.500000e-06 0.000000e+00 1.000000e+00 5.504433e-01 -1.000000e+00
121 1 1.200000e-05 1.500000e-06 0.000000e+00 1.000000e+00 5.595139e-01 1.000000e+00
122 1 1.250000e-05 1.500000e-06 0.000000e+00 1.000000e+00 5.652619e-01 -1.000000e+00
123 1 1.300000e-05 1.500000e-06 0.000000e+00 1.000000e+00 5.614739e-01 1.000000e+00
124 1 1.350000e-05 1.500000e-06 0.000000e+00 1.000000e+00 5.577585e-01 -1.000000e+00
125 1 1.400000e-05 1.500000e-06 0.000000e+00 1.000000e+00 5.544643e-01 1.000000e+00
126 1 1.450000e-05 1.500000e-06 0.000000e+00 1.000000e+00 5.584624e-01 -1.000000e+00
127 1 1.500000e-05 1.500000e-06 0.000000e+00 1.000000e+00 5.500542e-01 1.000000e+00
128 1 1.550000e-05 1.500000e-06 0.000000e+00 1.000000e+00 7.670857e-01 -1.000000e+00
129 1 0.000000e+00 2.000000e-06 0.000000e+00 1.000000e+00 7.596195e-01 -1.000000e+00
130 1 5.000000e-07 2.000000e-06 0.000000e+00 1.000000e+00 5.450971e-01 1.000000e+00
131 1 1.000000e-06 2.000000e-06 0.000000e+00 1.000000e+00 5.486619e-01 -1.000000e+00
132 1 1.500000e-06 2.000000e-06 0.000000e+00 1.000000e+00 5.466485e-01 1.000000e+00
133 1 2.000000e-06 2.000000e-06 0.000000e+00 1.000000e+00 5.411050e-01 -1.000000e+00
134 1 2.500000e-06 2.000000e-06 0.000000e+00 1.000000e+00 5.447128e-01 1.000000e+00
135 1 3.000000e-06 2.000000e-06 0.000000e+00 1.000000e+00 5.480829e-01 -1.000000e+00
136 1 3.500000e-06 2.000000e-06 0.000000e+00 1.000000e+00 5.438015e-01 1.000000e+00
137 1 4.000000e-06 2.000000e-06 0.000000e+00 1.000000e+00 5.504988e-01 -1.000000e+00
138 1 4.500000e-06 2.000000e-06 0.000000e+00 1.000000e+00 5.502206e-01 1.000000e+00
139 1 5.000000e-06 2.000000e-06 0.000000e+00 1.000000e+00 5.529874e-01 -1.000000e+00
140 1 5.500000e-06 2.000000e-06 0.000000e+00 1.000000e+00 5.384453e-01 1.000000e+00
141 1 6.000000e-06 2.000000e-06 0.000000e+00 1.000000e+00 5.490695e-01 -1.000000e+00
142 1 6.500000e-06 2.000000e-06 0.000000e+00 1.000000e+00 5.405914e-01 1.000000e+00
143 1 7.000000e-06 2.000000e-06 0.000000e+00 1.000000e+00 5.408968e-01 -1.000000e+00
144 1 7.500000e-06 2.000000e-06 0.000000e+00 1.000000e+00 5.429999e-01 1.000000e+00
145 1 8.000000e-06 2.000000e-06 0.000000e+00 1.000000e+00 5.436765e-01 -1.000000e+00
146 1 8.500000e-06 2.000000e-06 0.000000e+00 1.000000e+00 5.473880e-01 1.000000e+00
147 1 9.000000e-06 2.000000e-06 0.000000e+00 1.000000e+00 5.454694e-01 -1.000000e+00
148 1 9.500000e-06 2.000000e-06 0.000000e+00 1.000000e+00 5.389403e-01 1.000000e+00
149 1 1.000000e-05 2.000000e-06 0.000000e+00 1.000000e+00 5.568592e-01 -1.000000e+00
150 1 1.050000e-05 2.000000e-06 0.000000e+00 1.000000e+00 5.451216e-01 1.000000e+00
151 1 1.100000e-05 2.000000e-06 0.000000e+00 1.000000e+00 5.451281e-01 -1.000000e+00
152 1 1.150000e-05 2.000000e-06 0.000000e+00 1.000000e+00 5.548936e-01 1.000000e+00
153 1 1.200000e-05 2.000000e-06 0.000000e+00 1.000000e+00 5.584040e-01 -1.000000e+00
154 1 1.250000e-05 2.000000e-06 0.000000e+00 1.000000e+00 5.569434e-01 1.000000e+00
155 1 1.300000e-05 2.000000e-06 0.000000e+00 1.000000e+00 5.445224e-01 -1.000000e+00
156 1 1.350000e-05 2.000000e-06 0.000000e+00 1.000000e+00 5.471758e-01 1.000000e+00
157 1 1.400000e-05 2.000000e-06 0.000000e+00 1.000000e+00 5.470628e-01 -1.000000e+00
158 1 1.450000e-05 2.000000e-06 0.000000e+00 1.000000e+00 5.446778e-01 1.000000e+00
159 1 1.500000e-05 2.000000e-06 0.000000e+00 1.000000e+00 5.445325e-01 -1.000000e+00
160 1 1.550000e-05 2.000000e-06 0.000000e+00 1.000000e+00 7.661584e-01 1.000000e+00
161 1 0.000000e+00 2.500000e-06 0.000000e+00 1.000000e+00 7.641655e-01 1.000000e+00
162 1 5.000000e-07 2.500000e-06 0.000000e+00 1.000000e+00 5.501796e-01 -1.000000e+00
163 1 1.000000e-06 2.500000e-06 0.000000e+00 1.000000e+00 5.496195e-01 1.000000e+00
164 1 1.500000e-06 2.500000e-06 0.000000e+00 1.000000e+00 5.498339e-01 -1.000000e+00
165 1 2.000000e-06 2.500000e-06 0.000000e+00 1.000000e+00 5.458132e-01 1.000000e+00
166 1 2.500000e-06 2.500000e-06 0.000000e+00 1.000000e+00 5.401119e-01 -1.000000e+00
167 1 3.000000e-06 2.500000e-06 0.000000e+00 1.000000e+00 5.450939e-01 1.000000e+00
168 1 3.500000e-06 2.500000e-06 0.000000e+00 1.000000e+00 5.442401e-01 -1.000000e+00
169 1 4.000000e-06 2.500000e-06 0.000000e+00 1.000000e+00 5.479785e-01 1.000000e+00
170 1 4.500000e-06 2.500000e-06 0.000000e+00 1.000000e+00 5.474647e-01 -1.000000e+00
171 1 5.000000e-06 2.500000e-06 0.000000e+00 1.000000e+00 5.491020e-01 1.000000e+00
172 1 5.500000e-06 2.500000e-06 0.000000e+00 1.000000e+00 5.513076e-01 -1.000000e+00
173 1 6.000000e-06 2.500000e-06 0.000000e+00 1.000000e+00 5.503467e-01 1.000000e+00
174 1 6.500000e-06 2.500000e-06 0.000000e+00 1.000000e+00 5.506711e-01 -1.000000e+00
175 1 7.000000e-06 2.500000e-06 0.000000e+00 1.000000e+00 5.481413e-01 1.000000e+00
176 1 7.500000e-06 2.500000e-06 0.000000e+00 1.000000e+00 5.519665e-01 -1.000000e+00
177 1 8.000000e-06 2.500000e-06 0.000000e+00 1.000000e+00 5.528639e-01 1.000000e+00
178 1 8.500000e-06 2.500000e-06 0.000000e+00 1.000000e+00 5.538931e-01 -1.000000e+00
179 1 9.000000e-06 2.500000e-06 0.000000e+00 1.000000e+00 5.498756e-01 1.000000e+00
180 1 9.500000e-06 2.500000e-06 0.000000e+00 1.000000e+00 5.544229e-01 -1.000000e+00
181 1 1.000000e-05 2.500000e-06 0.000000e+00 1.000000e+00 5.457939e-01 1.000000e+00
182 1 1.050000e-05 2.500000e-06 0.000000e+00 1.000000e+00 5.553349e-01 -1.000000e+00
183 1 1.100000e-05 2.500000e-06 0.000000e+00 1.000000e+00 5.531570e-01 1.000000e+00
184 1 1.150000e-05 2.500000e-06 0.000000e+00 1.000000e+00 5.538395e-01 -1.000000e+00
185 1 1.200000e-05 2.500000e-06 0.000000e+00 1.000000e+00 5.653419e-01 1.000000e+00
186 1 1.250000e-05 2.500000e-06 0.000000e+00 1.000000e+00 5.551958e-01 -1.000000e+00
187 1 1.300000e-05 2.500000e-06 0.000000e+00 1.000000e+00 5.600334e-01 1.000000e+00
188 1 1.350000e-05 2.500000e-06 0.000000e+00 1.000000e+00 5.554052e-01 -1.000000e+00
189 1 1.400000e-05 2.500000e-06 0.000000e+00 1.000000e+00 5.539467e-01 1.000000e+00
190 1 1.450000e-05 2.500000e-06 0.000000e+00 1.000000e+00 5.499923e-01 -1.000000e+00
191 1 1.500000e-05 2.500000e-06 0.000000e+00 1.000000e+00 5.523633e-01 1.000000e+00
192 1 1.550000e-05 2.500000e-06 0.000000e+00 1.000000e+00 7.635368e-01 -1.000000e+00
193 1 0.000000e+00 3.000000e-06 0.000000e+00 1.000000e+00 7.721682e-01 -1.000000e+00
194 1 5.000000e-07 3.000000e-06 0.000000e+00 1.000000e+00 5.442523e-01 1.000000e+00
195 1 1.000000e-06 3.000000e-06 0.000000e+00 1.000000e+00 5.462678e-01 -1.000000e+00
196 1 1.500000e-06 3.000000e-06 0.000000e+00 1.000000e+00 5.472044e-01 1.000000e+00
197 1 2.000000e-06 3.000000e-06 0.000000e+00 1.000000e+00 5.398461e-01 -1.000000e+00
198 1 2.500000e-06 3.000000e-06 0.000000e+00 1.000000e+00 5.398708e-01 1.000000e+00
199 1 3.000000e-06 3.000000e-06 0.000000e+00 1.000000e+00 5.447992e-01 -1.000000e+00
200 1 3.500000e-06 3.000000e-06 0.000000e+00 1.000000e+00 5.461421e-01 1.000000e+00
201 1 4.000000e-06 3.000000e-06 0.000000e+00 1.000000e+00 5.438001e-01 -1.000000e+00
202 1 4.500000e-06 3.000000e-06 0.000000e+00 1.000000e+00 5.479849e-01 1.000000e+00
203 1 5.000000e-06 3.000000e-06 0.000000e+00 1.000000e+00 5.550730e-01 -1.000000e+00
204 1 5.500000e-06 3.000000e-06 0.000000e+00 1.000000e+00 5.516122e-01 1.000000e+00
205 1 6.000000e-06 3.000000e-06 0.000000e+00 1.000000e+00 5.509307e-01 -1.000000e+00
206 1 6.500000e-06 3.000000e-06 0.000000e+00 1.000000e+00 5.528437e-01 1.000000e+00
207 1 7.000000e-06 3.000000e-06 0.000000e+00 1.000000e+00 5.567066e-01 -1.000000e+00
208 1 7.500000e-06 3.000000e-06 0.000000e+00 1.000000e+00 5.448825e-01 1.000000e+00
209 1 8.000000e-06 3.000000e-06 0.000000e+00 1.000000e+00 5.371099e-01 -1.000000e+00
210 1 8.500000e-06 3.000000e-06 0.000000e+00 1.000000e+00 5.388457e-01 1.000000e+00
211 1 9.000000e-06 3.000000e-06 0.000000e+00 1.000000e+00 5.386923e-01 -1.000000e+00
212 1 9.500000e-06 3.000000e-06 0.000000e+00 1.000000e+00 5.488136e-01 1.000000e+00
213 1 1.000000e-05 3.000000e-06 0.000000e+00 1.000000e+00 5.387161e-01 -1.000000e+00
214 1 1.050000e-05 3.000000e-06 0.000000e+00 1.000000e+00 5.460397e-01 1.000000e+00
215 1 1.100000e-05 3.000000e-06 0.000000e+00 1.000000e+00 5.603078e-01 -1.000000e+00
216 1 1.150000e-05 3.000000e-06 0.000000e+00 1.000000e+00 5.628102e-01 1.000000e+00
217 1 1.200000e-05 3.000000e-06 0.000000e+00 1.000000e+00 5.482649e-01 -1.000000e+00
218 1 1.250000e-05 3.000000e-06 0.000000e+00 1.000000e+00 5.510671e-01 1.000000e+00
219 1 1.300000e-05 3.000000e-06 0.000000e+00 1.000000e+00 5.549144e-01 -1.000000e+00
220 1 1.350000e-05 3.000000e-06 0.000000e+00 1.000000e+00 5.539184e-01 1.000000e+00
221 1 1.400000e-05 3.000000e-06 0.000000e+00 1.000000e+00 5.522390e-01 -1.000000e+00
222 1 1.450000e-05 3.000000e-06 0.000000e+00 1.000000e+00 5.539352e-01 1.000000e+00
223 1 1.500000e-05 3.000000e-06 0.000000e+00 1.000000e+00 5.531138e-01 -1.000000e+00
224 1 1.550000e-05 3.000000e-06 0.000000e+00 1.000000e+00 7.779515e-01 1.000000e+00
225 1 0.000000e+00 3.500000e-06 0.000000e+00 1.000000e+00 7.690356e-01 1.000000e+00
226 1 5.000000e-07 3.500000e-06 0.000000e+00 1.000000e+00 5.437912e-01 -1.000000e+00
227 1 1.000000e-06 3.500000e-06 0.000000e+00 1.000000e+00 5.437819e-01 1.000000e+00
228 1 1.500000e-06 3.500000e-06 0.000000e+00 1.000000e+00 5.442280e-01 -1.000000e+00
229 1 2.000000e-06 3.500000e-06 0.000000e+00 1.000000e+00 5.419220e-01 1.000000e+00
230 1 2.500000e-06 3.500000e-06 0.000000e+00 1.000000e+00 5.413442e-01 -1.000000e+00
231 1 3.000000e-06 3.500000e-06 0.000000e+00 1.000000e+00 5.423023e-01 1.000000e+00
232 1 3.500000e-06 3.500000e-06 0.000000e+00 1.000000e+00 5.424661e-01 -1.000000e+00
233 1 4.000000e-06 3.500000e-06 0.000000e+00 1.000000e+00 5.394870e-01 1.000000e+00
234 1 4.500000e-06 3.500000e-06 0.000000e+00 1.000000e+00 5.274389e-01 -1.000000e+00
235 1 5.000000e-06 3.500000e-06 0.000000e+00 1.000000e+00 5.384798e-01 1.000000e+00
236 1 5.500000e-06 3.500000e-06 0.000000e+00 1.000000e+00 5.503979e-01 -1.000000e+00
237 1 6.000000e-06 3.500000e-06 0.000000e+00 1.000000e+00 5.442354e-01 1.000000e+00
238 1 6.500000e-06 3.500000e-06 0.000000e+00 1.000000e+00 5.442588e-01 -1.000000e+00
239 1 7.000000e-06 3.500000e-06 0.000000e+00 1.000000e+00 5.442327e-01 1.000000e+00
240 1 7.500000e-06 3.500000e-06 0.000000e+00 1.000000e+00 5.388129e-01 -1.000000e+00
241 1 8.000000e-06 3.500000e-06 0.000000e+00 1.000000e+00 5.447451e-01 1.000000e+00
242 1 8.500000e-06 3.500000e-06 0.000000e+00 1.000000e+00 5.379382e-01 -1.000000e+00
243 1 9.000000e-06 3.500000e-06 0.000000e+00 1.000000e+00 5.476192e-01 1.000000e+00
244 1 9.500000e-06 3.500000e-06 0.000000e+00 1.000000e+00 5.397005e-01 -1.000000e+00
245 1 1.000000e-05 3.500000e-06 0.000000e+00 1.000000e+00 5.377935e-01 1.000000e+00
246 1 1.050000e-05 3.500000e-06 0.000000e+00 1.000000e+00 5.313387e-01 -1.000000e+00
247 1 1.100000e-05 3.500000e-06 0.000000e+00 1.000000e+00 5.427156e-01 1.000000e+00
248 1 1.150000e-05 3.500000e-06 0.000000e+00 1.000000e+00 5.511653e-01 -1.000000e+00
249 1 1.200000e-05 3.500000e-06 0.000000e+00 1.000000e+00 5.437858e-01 1.000000e+00
250 1 1.250000e-05 3.500000e-06 0.000000e+00 1.000000e+00 5.457164e-01 -1.000000e+00
251 1 1.300000e-05 3.500000e-06 0.000000e+00 1.000000e+00 5.455597e-01 1.000000e+00
252 1 1.350000e-05 3.500000e-06 0.000000e+00 1.000000e+00 5.430197e-01 -1.000000e+00
253 1 1.400000e-05 3.500000e-06 0.000000e+00 1.000000e+00 5.390285e-01 1.000000e+00
254 1 1.450000e-05 3.500000e-06 0.000000e+00 1.000000e+00 5.396517e-01 -1.000000e+00
255 1 1.500000e-05 3.500000e-06 0.000000e+00 1.000000e+00 5.385606e-01 1.000000e+00
256 1 1.550000e-05 3.500000e-06 0.000000e+00 1.000000e+00 7.686206e-01 -1.000000e+00
257 1 0.000000e+00 4.000000e-06 0.000000e+00 1.000000e+00 7.697048e-01 -1.000000e+00
258 1 5.000000e-07 4.000000e-06 0.000000e+00 1.000000e+00 5.442480e-01 1.000000e+00
259 1 1.000000e-06 4.000000e-06 0.000000e+00 1.000000e+00 5.442384e-01 -1.000000e+00
260 1 1.500000e-06 4.000000e-06 0.000000e+00 1.000000e+00 5.451309e-01 1.000000e+00
261 1 2.000000e-06 4.000000e-06 0.000000e+00 1.000000e+00 5.439486e-01 -1.000000e+00
262 1 2.500000e-06 4.000000e-06 0.000000e+00 1.000000e+00 5.447370e-01 1.000000e+00
263 1 3.000000e-06 4.000000e-06 0.000000e+00 1.000000e+00 5.496667e-01 -1.000000e+00
264 1 3.500000e-06 4.000000e-06 0.000000e+00 1.000000e+00 5.507728e-01 1.000000e+00
265 1 4.000000e-06 4.000000e-06 0.000000e+00 1.000000e+00 5.477290e-01 -1.000000e+00
266 1 4.500000e-06 4.000000e-06 0.000000e+00 1.000000e+00 5.559939e-01 1.000000e+00
267 1 5.000000e-06 4.000000e-06 0.000000e+00 1.000000e+00 5.532493e-01 -1.000000e+00
268 1 5.500000e-06 4.000000e-06 0.000000e+00 1.000000e+00 5.502721e-01 1.000000e+00
269 1 6.000000e-06 4.000000e-06 0.000000e+00 1.000000e+00 5.512669e-01 -1.000000e+00
270 1 6.500000e-06 4.000000e-06 0.000000e+00 1.000000e+00 5.437955e-01 1.000000e+00
271 1 7.000000e-06 4.000000e-06 0.000000e+00 1.000000e+00 5.485745e-01 -1.000000e+00
272 1 7.500000e-06 4.000000e-06 0.000000e+00 1.000000e+00 5.495805e-01 1.000000e+00
273 1 8.000000e-06 4.000000e-06 0.000000e+00 1.000000e+00 5.481453e-01 -1.000000e+00
274 1 8.500000e-06 4.000000e-06 0.000000e+00 1.000000e+00 5.446307e-01 1.000000e+00
275 1 9.000000e-06 4.000000e-06 0.000000e+00 1.000000e+00 5.461419e-01 -1.000000e+00
276 1 9.500000e-06 4.000000e-06 0.000000e+00 1.000000e+00 5.438084e-01 1.000000e+00
277 1 1.000000e-05 4.000000e-06 0.000000e+00 1.000000e+00 5.438011e-01 -1.000000e+00
278 1 1.050000e-05 4.000000e-06 0.000000e+00 1.000000e+00 5.432084e-01 1.000000e+00
279 1 1.100000e-05 4.000000e-06 0.000000e+00 1.000000e+00 5.424132e-01 -1.000000e+00
280 1 1.150000e-05 4.000000e-06 0.000000e+00 1.000000e+00 5.446247e-01 1.000000e+00
281 1 1.200000e-05 4.000000e-06 0.000000e+00 1.000000e+00 5.481261e-01 -1.000000e+00
282 1 1.250000e-05 4.000000e-06 0.000000e+00 1.000000e+00 5.476526e-01 1.000000e+00
283 1 1.300000e-05 4.000000e-06 0.000000e+00 1.000000e+00 5.466457e-01 -1.000000e+00
284 1 1.350000e-05 4.000000e-06 0.000000e+00 1.000000e+00 5.443455e-01 1.000000e+00
285 1 1.400000e-05 4.000000e-06 0.000000e+00 1.000000e+00 5.458689e-01 -1.000000e+00
286 1 1.450000e-05 4.000000e-06 0.000000e+00 1.000000e+00 5.452751e-01 1.000000e+00
287 1 1.500000e-05 4.000000e-06 0.000000e+00 1.000000e+00 5.447924e-01 -1.000000e+00
288 1 1.550000e-05 4.000000e-06 0.000000e+00 1.000000e+00 7.704352e-01 1.000000e+00
289 1 0.000000e+00 4.500000e-06 0.000000e+00 1.000000e+00 7.673063e-01 1.000000e+00
290 1 5.000000e-07 4.500000e-06 0.000000e+00 1.000000e+00 5.442814e-01 -1.000000e+00
291 1 1.000000e-06 4.500000e-06 0.000000e+00 1.000000e+00 5.442712e-01 1.000000e+00
292 1 1.500000e-06 4.500000e-06 0.000000e+00 1.000000e+00 5.442796e-01 -1.000000e+00
293 1 2.000000e-06 4.500000e-06 0.000000e+00 1.000000e+00 5.453559e-01 1.000000e+00
294 1 2.500000e-06 4.500000e-06 0.000000e+00 1.000000e+00 5.429341e-01 -1.000000e+00
295 1 3.000000e-06 4.500000e-06 0.000000e+00 1.000000e+00 5.530406e-01 1.000000e+00
296 1 3.500000e-06 4.500000e-06 0.000000e+00 1.000000e+00 5.485885e-01 -1.000000e+00
297 1 4.000000e-06 4.500000e-06 0.000000e+00 1.000000e+00 5.478640e-01 1.000000e+00
298 1 4.500000e-06 4.500000e-06 0.000000e+00 1.000000e+00 5.389894e-01 -1.000000e+00
299 1 5.000000e-06 4.500000e-06 0.000000e+00 1.000000e+00 5.480040e-01 1.000000e+00
300 1 5.500000e-06 4.500000e-06 0.000000e+00 1.000000e+00 5.465374e-01 -1.000000e+00
301 1 6.000000e-06 4.500000e-06 0.000000e+00 1.000000e+00 5.431898e-01 1.000000e+00
302 1 6.500000e-06 4.500000e-06 0.000000e+00 1.000000e+00 5.447268e-01 -1.000000e+00
303 1 7.000000e-06 4.500000e-06 0.000000e+00 1.000000e+00 5.442246e-01 1.000000e+00
304 1 7.500000e-06 4.500000e-06 0.000000e+00 1.000000e+00 5.455629e-01 -1.000000e+00
305 1 8.000000e-06 4.500000e-06 0.000000e+00 1.000000e+00 5.475817e-01 1.000000e+00
306 1 8.500000e-06 4.500000e-06 0.000000e+00 1.000000e+00 5.470597e-01 -1.000000e+00
307 1 9.000000e-06 4.500000e-06 0.000000e+00 1.000000e+00 5.437811e-01 1.000000e+00
308 1 9.500000e-06 4.500000e-06 0.000000e+00 1.000000e+00 5.457153e-01 -1.000000e+00
309 1 1.000000e-05 4.500000e-06 0.000000e+00 1.000000e+00 5.424238e-01 1.000000e+00
310 1 1.050000e-05 4.500000e-06 0.000000e+00 1.000000e+00 5.455652e-01 -1.000000e+00
311 1 1.100000e-05 4.500000e-06 0.000000e+00 1.000000e+00 5.420432e-01 1.000000e+00
312 1 1.150000e-05 4.500000e-06 0.000000e+00 1.000000e+00 5.431868e-01 -1.000000e+00
313 1 1.200000e-05 4.500000e-06 0.000000e+00 1.000000e+00 5.442453e-01 1.000000e+00
314 1 1.250000e-05 4.500000e-06 0.000000e+00 1.000000e+00 5.470512e-01 -1.000000e+00
315 1 1.300000e-05 4.500000e-06 0.000000e+00 1.000000e+00 5.458682e-01 1.000000e+00
316 1 1.350000e-05 4.500000e-06 0.000000e+00 1.000000e+00 5.432131e-01 -1.000000e+00
317 1 1.400000e-05 4.500000e-06 0.000000e+00 1.000000e+00 5.395917e-01 1.000000e+00
318 1 1.450000e-05 4.500000e-06 0.000000e+00 1.000000e+00 5.427037e-01 -1.000000e+00
319 1 1.500000e-05 4.500000e-06 0.000000e+00 1.000000e+00 5.473432e-01 1.000000e+00
320 1 1.550000e-05 4.500000e-06 0.000000e+00 1.000000e+00 7.727506e-01 -1.000000e+00
321 1 0.000000e+00 5.000000e-06 0.000000e+00 1.000000e+00 7.697092e-01 -1.000000e+00
322 1 5.000000e-07 5.000000e-06 0.000000e+00 1.000000e+00 5.442281e-01 1.000000e+00
323 1 1.000000e-06 5.000000e-06 0.000000e+00 1.000000e+00 5.442364e-01 -1.000000e+00
324 1 1.500000e-06 5.000000e-06 0.000000e+00 1.000000e+00 5.432135e-01 1.000000e+00
325 1 2.000000e-06 5.000000e-06 0.000000e+00 1.000000e+00 5.434160e-01 -1.000000e+00
326 1 2.500000e-06 5.000000e-06 0.000000e+00 1.000000e+00 5.438200e-01 1.000000e+00
327 1 3.000000e-06 5.000000e-06 0.000000e+00 1.000000e+00 5.480492e-01 -1.000000e+00
328 1 3.500000e-06 5.000000e-06 0.000000e+00 1.000000e+00 5.505002e-01 1.000000e+00
329 1 4.000000e-06 5.000000e-06 0.000000e+00 1.000000e+00 5.507953e-01 -1.000000e+00
330 1 4.500000e-06 5.000000e-06 0.000000e+00 1.000000e+00 5.360818e-01 1.000000e+00
331 1 5.000000e-06 5.000000e-06 0.000000e+00 1.000000e+00 5.423558e-01 -1.000000e+00
332 1 5.500000e-06 5.000000e-06 0.000000e+00 1.000000e+00 5.476283e-01 1.000000e+00
333 1 6.000000e-06 5.000000e-06 0.000000e+00 1.000000e+00 5.449829e-01 -1.000000e+00
334 1 6.500000e-06 5.000000e-06 0.000000e+00 1.000000e+00 5.442349e-01 1.000000e+00
335 1 7.000000e-06 5.000000e-06 0.000000e+00 1.000000e+00 5.438061e-01 -1.000000e+00
336 1 7.500000e-06 5.000000e-06 0.000000e+00 1.000000e+00 5.442519e-01 1.000000e+00
337 1 8.000000e-06 5.000000e-06 0.000000e+00 1.000000e+00 5.466542e-01 -1.000000e+00
338 1 8.500000e-06 5.000000e-06 0.000000e+00 1.000000e+00 5.476719e-01 1.000000e+00
339 1 9.000000e-06 5.000000e-06 0.000000e+00 1.000000e+00 5.437998e-01 -1.000000e+00
340 1 9.500000e-06 5.000000e-06 0.000000e+00 1.000000e+00 5.476414e-01 1.000000e+00
341 1 1.000000e-05 5.000000e-06 0.000000e+00 1.000000e+00 5.466229e-01 -1.000000e+00
342 1 1.050000e-05 5.000000e-06 0.000000e+00 1.000000e+00 5.470951e-01 1.000000e+00
343 1 1.100000e-05 5.000000e-06 0.000000e+00 1.000000e+00 5.481316e-01 -1.000000e+00
344 1 1.150000e-05 5.000000e-06 0.000000e+00 1.000000e+00 5.443357e-01 1.000000e+00
345 1 1.200000e-05 5.000000e-06 0.000000e+00 1.000000e+00 5.437970e-01 -1.000000e+00
346 1 1.250000e-05 5.000000e-06 0.000000e+00 1.000000e+00 5.466379e-01 1.000000e+00
347 1 1.300000e-05 5.000000e-06 0.000000e+00 1.000000e+00 5.491125e-01 -1.000000e+00
348 1 1.350000e-05 5.000000e-06 0.000000e+00 1.000000e+00 5.379008e-01 1.000000e+00
349 1 1.400000e-05 5.000000e-06 0.000000e+00 1.000000e+00 5.357890e-01 -1.000000e+00
350 1 1.450000e-05 5.000000e-06 0.000000e+00 1.000000e+00 5.401797e-01 1.000000e+00
351 1 1.500000e-05 5.000000e-06 0.000000e+00 1.000000e+00 5.415549e-01 -1.000000e+00
352 1 1.550000e-05 5.000000e-06 0.000000e+00 1.000000e+00 7.662668e-01 1.000000e+00
353 1 0.000000e+00 5.500000e-06 0.000000e+00 1.000000e+00 7.657923e-01 1.000000e+00
354 1 5.000000e-07 5.500000e-06 0.000000e+00 1.000000e+00 5.400691e-01 -1.000000e+00