ITEM: TIMESTEP
13
ITEM: NUMBER OF ATOMS
16384
ITEM: BOX BOUNDS pp pp pp
0.0 1.600000e-05
0.0 1.600000e-05
0.0 8.000000e-06
ITEM: ATOMS id type x y z crack plastic psi
1 1 0.000000e+00 0.000000e+00 0.000000e+00 1.000000e+00 8.967974e-01 -1.000122e+00
2 1 5.000000e-07 0.000000e+00 0.000000e+00 1.000000e+00 7.720134e-01 9.998779e-01
3 1 1.000000e-06 0.000000e+00 0.000000e+00 1.000000e+00 7.602630e-01 -1.000122e+00
4 1 1.500000e-06 0.000000e+00 0.000000e+00 1.000000e+00 7.560204e-01 9.998779e-01
5 1 2.000000e-06 0.000000e+00 0.000000e+00 1.000000e+00 7.559937e-01 -1.000122e+00
6 1 2.500000e-06 0.000000e+00 0.000000e+00 1.000000e+00 7.538768e-01 9.998779e-01
7 1 3.000000e-06 0.000000e+00 0.000000e+00 1.000000e+00 7.579268e-01 -1.000122e+00
8 1 3.500000e-06 0.000000e+00 0.000000e+00 1.000000e+00 7.579143e-01 9.998779e-01
9 1 4.000000e-06 0.000000e+00 0.000000e+00 1.000000e+00 7.579031e-01 -1.000122e+00
10 1 4.500000e-06 0.000000e+00 0.000000e+00 1.000000e+00 7.515471e-01 9.998779e-01
11 1 5.000000e-06 0.000000e+00 0.000000e+00 1.000000e+00 7.554791e-01 -1.000122e+00
12 1 5.500000e-06 0.000000e+00 0.000000e+00 1.000000e+00 7.508081e-01 9.998779e-01
13 1 6.000000e-06 0.000000e+00 0.000000e+00 1.000000e+00 7.507313e-01 -1.000122e+00
14 1 6.500000e-06 0.000000e+00 0.000000e+00 1.000000e+00 7.579029e-01 9.998779e-01
15 1 7.000000e-06 0.000000e+00 0.000000e+00 1.000000e+00 7.646865e-01 -1.000122e+00
16 1 7.500000e-06 0.000000e+00 0.000000e+00 1.000000e+00 7.702934e-01 9.998779e-01
17 1 8.000000e-06 0.000000e+00 0.000000e+00 1.000000e+00 7.623000e-01 -1.000122e+00
18 1 8.500000e-06 0.000000e+00 0.000000e+00 1.000000e+00 7.587826e-01 9.998779e-01
19 1 9.000000e-06 0.000000e+00 0.000000e+00 1.000000e+00 7.649506e-01 -1.000122e+00
20 1 9.500000e-06 0.000000e+00 0.000000e+00 1.000000e+00 7.612337e-01 9.998779e-01
21 1 1.000000e-05 0.000000e+00 0.000000e+00 1.000000e+00 7.703538e-01 -1.000122e+00
22 1 1.050000e-05 0.000000e+00 0.000000e+00 1.000000e+00 7.669681e-01 9.998779e-01
23 1 1.100000e-05 0.000000e+00 0.000000e+00 1.000000e+00 7.520186e-01 -1.000122e+00
24 1 1.150000e-05 0.000000e+00 0.000000e+00 1.000000e+00 7.231399e-01 9.998779e-01
25 1 1.200000e-05 0.000000e+00 0.000000e+00 1.000000e+00 7.506861e-01 -1.000122e+00
26 1 1.250000e-05 0.000000e+00 0.000000e+00 1.000000e+00 7.642422e-01 9.998779e-01
27 1 1.300000e-05 0.000000e+00 0.000000e+00 1.000000e+00 7.669046e-01 -1.000122e+00
28 1 1.350000e-05 0.000000e+00 0.000000e+00 1.000000e+00 7.639069e-01 9.998779e-01
29 1 1.400000e-05 0.000000e+00 0.000000e+00 1.000000e+00 7.615400e-01 -1.000122e+00
30 1 1.450000e-05 0.000000e+00 0.000000e+00 1.000000e+00 7.529080e-01 9.998779e-01
31 1 1.500000e-05 0.000000e+00 0.000000e+00 1.000000e+00 7.656359e-01 -1.000122e+00
32 1 1.550000e-05 0.000000e+00 0.000000e+00 1.000000e+00 9.160959e-01 9.998779e-01
33 1 0.000000e+00 5.000000e-07 0.000000e+00 1.000000e+00 7.124292e-01 9.998779e-01
34 1 5.000000e-07 5.000000e-07 0.000000e+00 1.000000e+00 5.406904e-01 -1.000122e+00
35 1 1.000000e-06 5.000000e-07 0.000000e+00 1.000000e+00 5.262163e-01 9.998779e-01
36 1 1.500000e-06 5.000000e-07 0.000000e+00 1.000000e+00 5.284889e-01 -1.000122e+00
37 1 2.000000e-06 5.000000e-07 0.000000e+00 1.000000e+00 5.282057e-01 9.998779e-01
38 1 2.500000e-06 5.000000e-07 0.000000e+00 1.000000e+00 5.307649e-01 -1.000122e+00
39 1 3.000000e-06 5.000000e-07 0.000000e+00 1.000000e+00 5.253783e-01 9.998779e-01
40 1 3.500000e-06 5.000000e-07 0.000000e+00 1.000000e+00 5.313220e-01 -1.000122e+00
41 1 4.000000e-06 5.000000e-07 0.000000e+00 1.000000e+00 5.317334e-01 9.998779e-01
42 1 4.500000e-06 5.000000e-07 0.000000e+00 1.000000e+00 5.291849e-01 -1.000122e+00
43 1 5.000000e-06 5.000000e-07 0.000000e+00 1.000000e+00 5.235009e-01 9.998779e-01
44 1 5.500000e-06 5.000000e-07 0.000000e+00 1.000000e+00 5.133383e-01 -1.000122e+00
45 1 6.000000e-06 5.000000e-07 0.000000e+00 1.000000e+00 5.224711e-01 9.998779e-01
46 1 6.500000e-06 5.000000e-07 0.000000e+00 1.000000e+00 5.382893e-01 -1.000122e+00
47 1 7.000000e-06 5.000000e-07 0.000000e+00 1.000000e+00 5.406710e-01 9.998779e-01
48 1 7.500000e-06 5.000000e-07 0.000000e+00 1.000000e+00 5.640477e-01 -1.000122e+00
49 1 8.000000e-06 5.000000e-07 0.000000e+00 1.000000e+00 5.425371e-01 9.998779e-01
50 1 8.500000e-06 5.000000e-07 0.000000e+00 1.000000e+00 5.342101e-01 -1.000122e+00
51 1 9.000000e-06 5.000000e-07 0.000000e+00 1.000000e+00 5.296639e-01 9.998779e-01
52 1 9.500000e-06 5.000000e-07 0.000000e+00 1.000000e+00 5.497800e-01 -1.000122e+00
53 1 1.000000e-05 5.000000e-07 0.000000e+00 1.000000e+00 5.443066e-01 9.998779e-01
54 1 1.050000e-05 5.000000e-07 0.000000e+00 1.000000e+00 5.252239e-01 -1.000122e+00
55 1 1.100000e-05 5.000000e-07 0.000000e+00 1.000000e+00 5.499261e-01 9.998779e-01
56 1 1.150000e-05 5.000000e-07 0.000000e+00 1.000000e+00 5.484068e-01 -1.000122e+00
57 1 1.200000e-05 5.000000e-07 0.000000e+00 1.000000e+00 5.408068e-01 9.998779e-01
58 1 1.250000e-05 5.000000e-07 0.000000e+00 1.000000e+00 5.243675e-01 -1.000122e+00
59 1 1.300000e-05 5.000000e-07 0.000000e+00 1.000000e+00 5.345846e-01 9.998779e-01
60 1 1.350000e-05 5.000000e-07 0.000000e+00 1.000000e+00 5.310155e-01 -1.000122e+00
61 1 1.400000e-05 5.000000e-07 0.000000e+00 1.000000e+00 5.320936e-01 9.998779e-01
62 1 1.450000e-05 5.000000e-07 0.000000e+00 1.000000e+00 5.474749e-01 -1.000122e+00
63 1 1.500000e-05 5.000000e-07 0.000000e+00 1.000000e+00 5.505198e-01 9.998779e-01
64 1 1.550000e-05 5.000000e-07 0.000000e+00 1.000000e+00 7.420876e-01 -1.000122e+00
65 1 0.000000e+00 1.000000e-06 0.000000e+00 1.000000e+00 7.269718e-01 -1.000122e+00
66 1 5.000000e-07 1.000000e-06 0.000000e+00 1.000000e+00 5.490465e-01 9.998779e-01
67 1 1.000000e-06 1.000000e-06 0.000000e+00 1.000000e+00 5.284011e-01 -1.000122e+00
68 1 1.500000e-06 1.000000e-06 0.000000e+00 1.000000e+00 5.262172e-01 9.998779e-01
69 1 2.000000e-06 1.000000e-06 0.000000e+00 1.000000e+00 5.251940e-01 -1.000122e+00
70 1 2.500000e-06 1.000000e-06 0.000000e+00 1.000000e+00 5.253698e-01 9.998779e-01
71 1 3.000000e-06 1.000000e-06 0.000000e+00 1.000000e+00 5.205007e-01 -1.000122e+00
72 1 3.500000e-06 1.000000e-06 0.000000e+00 1.000000e+00 5.317451e-01 9.998779e-01
73 1 4.000000e-06 1.000000e-06 0.000000e+00 1.000000e+00 5.402364e-01 -1.000122e+00
74 1 4.500000e-06 1.000000e-06 0.000000e+00 1.000000e+00 5.491487e-01 9.998779e-01
75 1 5.000000e-06 1.000000e-06 0.000000e+00 1.000000e+00 5.469454e-01 -1.000122e+00
76 1 5.500000e-06 1.000000e-06 0.000000e+00 1.000000e+00 5.400354e-01 9.998779e-01
77 1 6.000000e-06 1.000000e-06 0.000000e+00 1.000000e+00 5.469571e-01 -1.000122e+00
78 1 6.500000e-06 1.000000e-06 0.000000e+00 1.000000e+00 5.262415e-01 9.998779e-01
79 1 7.000000e-06 1.000000e-06 0.000000e+00 1.000000e+00 5.211239e-01 -1.000122e+00
80 1 7.500000e-06 1.000000e-06 0.000000e+00 1.000000e+00 5.460977e-01 9.998779e-01
81 1 8.000000e-06 1.000000e-06 0.000000e+00 1.000000e+00 5.330987e-01 -1.000122e+00
82 1 8.500000e-06 1.000000e-06 0.000000e+00 1.000000e+00 5.338078e-01 9.998779e-01
83 1 9.000000e-06 1.000000e-06 0.000000e+00 1.000000e+00 5.495790e-01 -1.000122e+00
84 1 9.500000e-06 1.000000e-06 0.000000e+00 1.000000e+00 5.573547e-01 9.998779e-01
85 1 1.000000e-05 1.000000e-06 0.000000e+00 1.000000e+00 5.446845e-01 -1.000122e+00
86 1 1.050000e-05 1.000000e-06 0.000000e+00 1.000000e+00 5.336576e-01 9.998779e-01
87 1 1.100000e-05 1.000000e-06 0.000000e+00 1.000000e+00 5.499791e-01 -1.000122e+00
88 1 1.150000e-05 1.000000e-06 0.000000e+00 1.000000e+00 5.324663e-01 9.998779e-01
89 1 1.200000e-05 1.000000e-06 0.000000e+00 1.000000e+00 5.462781e-01 -1.000122e+00
90 1 1.250000e-05 1.000000e-06 0.000000e+00 1.000000e+00 5.379843e-01 9.998779e-01
91 1 1.300000e-05 1.000000e-06 0.000000e+00 1.000000e+00 5.363310e-01 -1.000122e+00
92 1 1.350000e-05 1.000000e-06 0.000000e+00 1.000000e+00 5.359804e-01 9.998779e-01
93 1 1.400000e-05 1.000000e-06 0.000000e+00 1.000000e+00 5.362213e-01 -1.000122e+00
94 1 1.450000e-05 1.000000e-06 0.000000e+00 1.000000e+00 5.408063e-01 9.998779e-01
95 1 1.500000e-05 1.000000e-06 0.000000e+00 1.000000e+00 5.500703e-01 -1.000122e+00
96 1 1.550000e-05 1.000000e-06 0.000000e+00 1.000000e+00 7.508775e-01 9.998779e-01
97 1 0.000000e+00 1.500000e-06 0.000000e+00 1.000000e+00 7.397446e-01 9.998779e-01
98 1 5.000000e-07 1.500000e-06 0.000000e+00 1.000000e+00 5.464731e-01 -1.000122e+00
99 1 1.000000e-06 1.500000e-06 0.000000e+00 1.000000e+00 5.330823e-01 9.998779e-01
100 1 1.500000e-06 1.500000e-06 0.000000e+00 1.000000e+00 5.401174e-01 -1.000122e+00
101 1 2.000000e-06 1.500000e-06 0.000000e+00 1.000000e+00 5.407040e-01 9.998779e-01
102 1 2.500000e-06 1.500000e-06 0.000000e+00 1.000000e+00 5.382944e-01 -1.000122e+00
103 1 3.000000e-06 1.500000e-06 0.000000e+00 1.000000e+00 5.359185e-01 9.998779e-01
104 1 3.500000e-06 1.500000e-06 0.000000e+00 1.000000e+00 5.359145e-01 -1.000122e+00
105 1 4.000000e-06 1.500000e-06 0.000000e+00 1.000000e+00 5.430345e-01 9.998779e-01
106 1 4.500000e-06 1.500000e-06 0.000000e+00 1.000000e+00 5.457232e-01 -1.000122e+00
107 1 5.000000e-06 1.500000e-06 0.000000e+00 1.000000e+00 5.456411e-01 9.998779e-01
108 1 5.500000e-06 1.500000e-06 0.000000e+00 1.000000e+00 5.439850e-01 -1.000122e+00
109 1 6.000000e-06 1.500000e-06 0.000000e+00 1.000000e+00 5.346556e-01 9.998779e-01
110 1 6.500000e-06 1.500000e-06 0.000000e+00 1.000000e+00 5.410119e-01 -1.000122e+00
111 1 7.000000e-06 1.500000e-06 0.000000e+00 1.000000e+00 5.417779e-01 9.998779e-01
112 1 7.500000e-06 1.500000e-06 0.000000e+00 1.000000e+00 5.390271e-01 -1.000122e+00
113 1 8.000000e-06 1.500000e-06 0.000000e+00 1.000000e+00 5.380582e-01 9.998779e-01
114 1 8.500000e-06 1.500000e-06 0.000000e+00 1.000000e+00 5.355977e-01 -1.000122e+00
115 1 9.000000e-06 1.500000e-06 0.000000e+00 1.000000e+00 5.460653e-01 9.998779e-01
116 1 9.500000e-06 1.500000e-06 0.000000e+00 1.000000e+00 5.465082e-01 -1.000122e+00
117 1 1.000000e-05 1.500000e-06 0.000000e+00 1.000000e+00 5.429274e-01 9.998779e-01
118 1 1.050000e-05 1.500000e-06 0.000000e+00 1.000000e+00 5.465138e-01 -1.000122e+00
119 1 1.100000e-05 1.500000e-06 0.000000e+00 1.000000e+00 5.480325e-01 9.998779e-01
120 1 1.150000e-05 1.500000e-06 0.000000e+00 1.000000e+00 5.441317e-01 -1.000122e+00
121 1 1.200000e-05 1.500000e-06 0.000000e+00 1.000000e+00 5.553301e-01 9.998779e-01
122 1 1.250000e-05 1.500000e-06 0.000000e+00 1.000000e+00 5.624264e-01 -1.000122e+00
123 1 1.300000e-05 1.500000e-06 0.000000e+00 1.000000e+00 5.577499e-01 9.998779e-01
124 1 1.350000e-05 1.500000e-06 0.000000e+00 1.000000e+00 5.531629e-01 -1.000122e+00
125 1 1.400000e-05 1.500000e-06 0.000000e+00 1.000000e+00 5.490960e-01 9.998779e-01
126 1 1.450000e-05 1.500000e-06 0.000000e+00 1.000000e+00 5.540319e-01 -1.000122e+00
127 1 1.500000e-05 1.500000e-06 0.000000e+00 1.000000e+00 5.436514e-01 9.998779e-01
128 1 1.550000e-05 1.500000e-06 0.000000e+00 1.000000e+00 7.554955e-01 -1.000122e+00
129 1 0.000000e+00 2.000000e-06 0.000000e+00 1.000000e+00 7.462780e-01 -1.000122e+00
130 1 5.000000e-07 2.000000e-06 0.000000e+00 1.000000e+00 5.375315e-01 9.998779e-01
131 1 1.000000e-06 2.000000e-06 0.000000e+00 1.000000e+00 5.419325e-01 -1.000122e+00
132 1 1.500000e-06 2.000000e-06 0.000000e+00 1.000000e+00 5.394468e-01 9.998779e-01
133 1 2.000000e-06 2.000000e-06 0.000000e+00 1.000000e+00 5.326031e-01 -1.000122e+00
134 1 2.500000e-06 2.000000e-06 0.000000e+00 1.000000e+00 5.370572e-01 9.998779e-01
135 1 3.000000e-06 2.000000e-06 0.000000e+00 1.000000e+00 5.412178e-01 -1.000122e+00
136 1 3.500000e-06 2.000000e-06 0.000000e+00 1.000000e+00 5.359321e-01 9.998779e-01
137 1 4.000000e-06 2.000000e-06 0.000000e+00 1.000000e+00 5.442003e-01 -1.000122e+00
138 1 4.500000e-06 2.000000e-06 0.000000e+00 1.000000e+00 5.438569e-01 9.998779e-01
139 1 5.000000e-06 2.000000e-06 0.000000e+00 1.000000e+00 5.472727e-01 -1.000122e+00
140 1 5.500000e-06 2.000000e-06 0.000000e+00 1.000000e+00 5.293194e-01 9.998779e-01
141 1 6.000000e-06 2.000000e-06 0.000000e+00 1.000000e+00 5.424358e-01 -1.000122e+00
142 1 6.500000e-06 2.000000e-06 0.000000e+00 1.000000e+00 5.319689e-01 9.998779e-01
143 1 7.000000e-06 2.000000e-06 0.000000e+00 1.000000e+00 5.323460e-01 -1.000122e+00
144 1 7.500000e-06 2.000000e-06 0.000000e+00 1.000000e+00 5.349424e-01 9.998779e-01
145 1 8.000000e-06 2.000000e-06 0.000000e+00 1.000000e+00 5.357778e-01 -1.000122e+00
146 1 8.500000e-06 2.000000e-06 0.000000e+00 1.000000e+00 5.403598e-01 9.998779e-01
147 1 9.000000e-06 2.000000e-06 0.000000e+00 1.000000e+00 5.379911e-01 -1.000122e+00
148 1 9.500000e-06 2.000000e-06 0.000000e+00 1.000000e+00 5.299305e-01 9.998779e-01
149 1 1.000000e-05 2.000000e-06 0.000000e+00 1.000000e+00 5.520526e-01 -1.000122e+00
150 1 1.050000e-05 2.000000e-06 0.000000e+00 1.000000e+00 5.375618e-01 9.998779e-01
151 1 1.100000e-05 2.000000e-06 0.000000e+00 1.000000e+00 5.375698e-01 -1.000122e+00
152 1 1.150000e-05 2.000000e-06 0.000000e+00 1.000000e+00 5.496260e-01 9.998779e-01
153 1 1.200000e-05 2.000000e-06 0.000000e+00 1.000000e+00 5.539599e-01 -1.000122e+00
154 1 1.250000e-05 2.000000e-06 0.000000e+00 1.000000e+00 5.521567e-01 9.998779e-01
155 1 1.300000e-05 2.000000e-06 0.000000e+00 1.000000e+00 5.368220e-01 -1.000122e+00
156 1 1.350000e-05 2.000000e-06 0.000000e+00 1.000000e+00 5.400978e-01 9.998779e-01
157 1 1.400000e-05 2.000000e-06 0.000000e+00 1.000000e+00 5.399584e-01 -1.000122e+00
158 1 1.450000e-05 2.000000e-06 0.000000e+00 1.000000e+00 5.370139e-01 9.998779e-01
159 1 1.500000e-05 2.000000e-06 0.000000e+00 1.000000e+00 5.368345e-01 -1.000122e+00
160 1 1.550000e-05 2.000000e-06 0.000000e+00 1.000000e+00 7.543507e-01 9.998779e-01
161 1 0.000000e+00 2.500000e-06 0.000000e+00 1.000000e+00 7.518903e-01 9.998779e-01
162 1 5.000000e-07 2.500000e-06 0.000000e+00 1.000000e+00 5.438062e-01 -1.000122e+00
163 1 1.000000e-06 2.500000e-06 0.000000e+00 1.000000e+00 5.431147e-01 9.998779e-01
164 1 1.500000e-06 2.500000e-06 0.000000e+00 1.000000e+00 5.433795e-01 -1.000122e+00
165 1 2.000000e-06 2.500000e-06 0.000000e+00 1.000000e+00 5.384156e-01 9.998779e-01
166 1 2.500000e-06 2.500000e-06 0.000000e+00 1.000000e+00 5.313770e-01 -1.000122e+00
167 1 3.000000e-06 2.500000e-06 0.000000e+00 1.000000e+00 5.375276e-01 9.998779e-01
168 1 3.500000e-06 2.500000e-06 0.000000e+00 1.000000e+00 5.364736e-01 -1.000122e+00
169 1 4.000000e-06 2.500000e-06 0.000000e+00 1.000000e+00 5.410888e-01 9.998779e-01
170 1 4.500000e-06 2.500000e-06 0.000000e+00 1.000000e+00 5.404545e-01 -1.000122e+00
171 1 5.000000e-06 2.500000e-06 0.000000e+00 1.000000e+00 5.424758e-01 9.998779e-01
172 1 5.500000e-06 2.500000e-06 0.000000e+00 1.000000e+00 5.451988e-01 -1.000122e+00
173 1 6.000000e-06 2.500000e-06 0.000000e+00 1.000000e+00 5.440126e-01 9.998779e-01
174 1 6.500000e-06 2.500000e-06 0.000000e+00 1.000000e+00 5.444130e-01 -1.000122e+00
175 1 7.000000e-06 2.500000e-06 0.000000e+00 1.000000e+00 5.412898e-01 9.998779e-01
176 1 7.500000e-06 2.500000e-06 0.000000e+00 1.000000e+00 5.460123e-01 -1.000122e+00
177 1 8.000000e-06 2.500000e-06 0.000000e+00 1.000000e+00 5.471202e-01 9.998779e-01
178 1 8.500000e-06 2.500000e-06 0.000000e+00 1.000000e+00 5.483908e-01 -1.000122e+00
179 1 9.000000e-06 2.500000e-06 0.000000e+00 1.000000e+00 5.434309e-01 9.998779e-01
180 1 9.500000e-06 2.500000e-06 0.000000e+00 1.000000e+00 5.490449e-01 -1.000122e+00
181 1 1.000000e-05 2.500000e-06 0.000000e+00 1.000000e+00 5.383917e-01 9.998779e-01
182 1 1.050000e-05 2.500000e-06 0.000000e+00 1.000000e+00 5.501708e-01 -1.000122e+00
183 1 1.100000e-05 2.500000e-06 0.000000e+00 1.000000e+00 5.474820e-01 9.998779e-01
184 1 1.150000e-05 2.500000e-06 0.000000e+00 1.000000e+00 5.483246e-01 -1.000122e+00
185 1 1.200000e-05 2.500000e-06 0.000000e+00 1.000000e+00 5.625251e-01 9.998779e-01
186 1 1.250000e-05 2.500000e-06 0.000000e+00 1.000000e+00 5.499991e-01 -1.000122e+00
187 1 1.300000e-05 2.500000e-06 0.000000e+00 1.000000e+00 5.559714e-01 9.998779e-01
188 1 1.350000e-05 2.500000e-06 0.000000e+00 1.000000e+00 5.502576e-01 -1.000122e+00
189 1 1.400000e-05 2.500000e-06 0.000000e+00 1.000000e+00 5.484570e-01 9.998779e-01
190 1 1.450000e-05 2.500000e-06 0.000000e+00 1.000000e+00 5.435750e-01 -1.000122e+00
191 1 1.500000e-05 2.500000e-06 0.000000e+00 1.000000e+00 5.465022e-01 9.998779e-01
192 1 1.550000e-05 2.500000e-06 0.000000e+00 1.000000e+00 7.511141e-01 -1.000122e+00
193 1 0.000000e+00 3.000000e-06 0.000000e+00 1.000000e+00 7.617702e-01 -1.000122e+00
194 1 5.000000e-07 3.000000e-06 0.000000e+00 1.000000e+00 5.364886e-01 9.998779e-01
195 1 1.000000e-06 3.000000e-06 0.000000e+00 1.000000e+00 5.389768e-01 -1.000122e+00
196 1 1.500000e-06 3.000000e-06 0.000000e+00 1.000000e+00 5.401332e-01 9.998779e-01
197 1 2.000000e-06 3.000000e-06 0.000000e+00 1.000000e+00 5.310488e-01 -1.000122e+00
198 1 2.500000e-06 3.000000e-06 0.000000e+00 1.000000e+00 5.310793e-01 9.998779e-01
199 1 3.000000e-06 3.000000e-06 0.000000e+00 1.000000e+00 5.371638e-01 -1.000122e+00
200 1 3.500000e-06 3.000000e-06 0.000000e+00 1.000000e+00 5.388216e-01 9.998779e-01
201 1 4.000000e-06 3.000000e-06 0.000000e+00 1.000000e+00 5.359304e-01 -1.000122e+00
202 1 4.500000e-06 3.000000e-06 0.000000e+00 1.000000e+00 5.410967e-01 9.998779e-01
203 1 5.000000e-06 3.000000e-06 0.000000e+00 1.000000e+00 5.498474e-01 -1.000122e+00
204 1 5.500000e-06 3.000000e-06 0.000000e+00 1.000000e+00 5.455748e-01 9.998779e-01
205 1 6.000000e-06 3.000000e-06 0.000000e+00 1.000000e+00 5.447335e-01 -1.000122e+00
206 1 6.500000e-06 3.000000e-06 0.000000e+00 1.000000e+00 5.470952e-01 9.998779e-01
207 1 7.000000e-06 3.000000e-06 0.000000e+00 1.000000e+00 5.518643e-01 -1.000122e+00
208 1 7.500000e-06 3.000000e-06 0.000000e+00 1.000000e+00 5.372665e-01 9.998779e-01
209 1 8.000000e-06 3.000000e-06 0.000000e+00 1.000000e+00 5.276708e-01 -1.000122e+00
210 1 8.500000e-06 3.000000e-06 0.000000e+00 1.000000e+00 5.298138e-01 9.998779e-01
211 1 9.000000e-06 3.000000e-06 0.000000e+00 1.000000e+00 5.296244e-01 -1.000122e+00
212 1 9.500000e-06 3.000000e-06 0.000000e+00 1.000000e+00 5.421198e-01 9.998779e-01
213 1 1.000000e-05 3.000000e-06 0.000000e+00 1.000000e+00 5.296537e-01 -1.000122e+00
214 1 1.050000e-05 3.000000e-06 0.000000e+00 1.000000e+00 5.386952e-01 9.998779e-01
215 1 1.100000e-05 3.000000e-06 0.000000e+00 1.000000e+00 5.563101e-01 -1.000122e+00
216 1 1.150000e-05 3.000000e-06 0.000000e+00 1.000000e+00 5.593995e-01 9.998779e-01
217 1 1.200000e-05 3.000000e-06 0.000000e+00 1.000000e+00 5.414424e-01 -1.000122e+00
218 1 1.250000e-05 3.000000e-06 0.000000e+00 1.000000e+00 5.449019e-01 9.998779e-01
219 1 1.300000e-05 3.000000e-06 0.000000e+00 1.000000e+00 5.496517e-01 -1.000122e+00
220 1 1.350000e-05 3.000000e-06 0.000000e+00 1.000000e+00 5.484220e-01 9.998779e-01
221 1 1.400000e-05 3.000000e-06 0.000000e+00 1.000000e+00 5.463487e-01 -1.000122e+00
222 1 1.450000e-05 3.000000e-06 0.000000e+00 1.000000e+00 5.484428e-01 9.998779e-01
223 1 1.500000e-05 3.000000e-06 0.000000e+00 1.000000e+00 5.474287e-01 -1.000122e+00
224 1 1.550000e-05 3.000000e-06 0.000000e+00 1.000000e+00 7.689101e-01 9.998779e-01
225 1 0.000000e+00 3.500000e-06 0.000000e+00 1.000000e+00 7.579028e-01 9.998779e-01
226 1 5.000000e-07 3.500000e-06 0.000000e+00 1.000000e+00 5.359193e-01 -1.000122e+00
227 1 1.000000e-06 3.500000e-06 0.000000e+00 1.000000e+00 5.359078e-01 9.998779e-01
228 1 1.500000e-06 3.500000e-06 0.000000e+00 1.000000e+00 5.364586e-01 -1.000122e+00
229 1 2.000000e-06 3.500000e-06 0.000000e+00 1.000000e+00 5.336117e-01 9.998779e-01
230 1 2.500000e-06 3.500000e-06 0.000000e+00 1.000000e+00 5.328983e-01 -1.000122e+00
231 1 3.000000e-06 3.500000e-06 0.000000e+00 1.000000e+00 5.340812e-01 9.998779e-01
232 1 3.500000e-06 3.500000e-06 0.000000e+00 1.000000e+00 5.342833e-01 -1.000122e+00
233 1 4.000000e-06 3.500000e-06 0.000000e+00 1.000000e+00 5.306055e-01 9.998779e-01
234 1 4.500000e-06 3.500000e-06 0.000000e+00 1.000000e+00 5.157313e-01 -1.000122e+00
235 1 5.000000e-06 3.500000e-06 0.000000e+00 1.000000e+00 5.293621e-01 9.998779e-01
236 1 5.500000e-06 3.500000e-06 0.000000e+00 1.000000e+00 5.440757e-01 -1.000122e+00
237 1 6.000000e-06 3.500000e-06 0.000000e+00 1.000000e+00 5.364677e-01 9.998779e-01
238 1 6.500000e-06 3.500000e-06 0.000000e+00 1.000000e+00 5.364965e-01 -1.000122e+00
239 1 7.000000e-06 3.500000e-06 0.000000e+00 1.000000e+00 5.364644e-01 9.998779e-01
240 1 7.500000e-06 3.500000e-06 0.000000e+00 1.000000e+00 5.297732e-01 -1.000122e+00
241 1 8.000000e-06 3.500000e-06 0.000000e+00 1.000000e+00 5.370970e-01 9.998779e-01
242 1 8.500000e-06 3.500000e-06 0.000000e+00 1.000000e+00 5.286933e-01 -1.000122e+00
243 1 9.000000e-06 3.500000e-06 0.000000e+00 1.000000e+00 5.406452e-01 9.998779e-01
244 1 9.500000e-06 3.500000e-06 0.000000e+00 1.000000e+00 5.308691e-01 -1.000122e+00
245 1 1.000000e-05 3.500000e-06 0.000000e+00 1.000000e+00 5.285147e-01 9.998779e-01
246 1 1.050000e-05 3.500000e-06 0.000000e+00 1.000000e+00 5.205458e-01 -1.000122e+00
247 1 1.100000e-05 3.500000e-06 0.000000e+00 1.000000e+00 5.345914e-01 9.998779e-01
248 1 1.150000e-05 3.500000e-06 0.000000e+00 1.000000e+00 5.450231e-01 -1.000122e+00
249 1 1.200000e-05 3.500000e-06 0.000000e+00 1.000000e+00 5.359127e-01 9.998779e-01
250 1 1.250000e-05 3.500000e-06 0.000000e+00 1.000000e+00 5.382961e-01 -1.000122e+00
251 1 1.300000e-05 3.500000e-06 0.000000e+00 1.000000e+00 5.381027e-01 9.998779e-01
252 1 1.350000e-05 3.500000e-06 0.000000e+00 1.000000e+00 5.349668e-01 -1.000122e+00
253 1 1.400000e-05 3.500000e-06 0.000000e+00 1.000000e+00 5.300394e-01 9.998779e-01
254 1 1.450000e-05 3.500000e-06 0.000000e+00 1.000000e+00 5.308088e-01 -1.000122e+00
255 1 1.500000e-05 3.500000e-06 0.000000e+00 1.000000e+00 5.294618e-01 9.998779e-01
256 1 1.550000e-05 3.500000e-06 0.000000e+00 1.000000e+00 7.573905e-01 -1.000122e+00
257 1 0.000000e+00 4.000000e-06 0.000000e+00 1.000000e+00 7.587290e-01 -1.000122e+00
258 1 5.000000e-07 4.000000e-06 0.000000e+00 1.000000e+00 5.364832e-01 9.998779e-01
259 1 1.000000e-06 4.000000e-06 0.000000e+00 1.000000e+00 5.364714e-01 -1.000122e+00
260 1 1.500000e-06 4.000000e-06 0.000000e+00 1.000000e+00 5.375733e-01 9.998779e-01
261 1 2.000000e-06 4.000000e-06 0.000000e+00 1.000000e+00 5.361137e-01 -1.000122e+00
262 1 2.500000e-06 4.000000e-06 0.000000e+00 1.000000e+00 5.370870e-01 9.998779e-01
263 1 3.000000e-06 4.000000e-06 0.000000e+00 1.000000e+00 5.431730e-01 -1.000122e+00
264 1 3.500000e-06 4.000000e-06 0.000000e+00 1.000000e+00 5.445386e-01 9.998779e-01
265 1 4.000000e-06 4.000000e-06 0.000000e+00 1.000000e+00 5.407809e-01 -1.000122e+00
266 1 4.500000e-06 4.000000e-06 0.000000e+00 1.000000e+00 5.509844e-01 9.998779e-01
267 1 5.000000e-06 4.000000e-06 0.000000e+00 1.000000e+00 5.475960e-01 -1.000122e+00
268 1 5.500000e-06 4.000000e-06 0.000000e+00 1.000000e+00 5.439204e-01 9.998779e-01
269 1 6.000000e-06 4.000000e-06 0.000000e+00 1.000000e+00 5.451485e-01 -1.000122e+00
270 1 6.500000e-06 4.000000e-06 0.000000e+00 1.000000e+00 5.359246e-01 9.998779e-01
271 1 7.000000e-06 4.000000e-06 0.000000e+00 1.000000e+00 5.418246e-01 -1.000122e+00
272 1 7.500000e-06 4.000000e-06 0.000000e+00 1.000000e+00 5.430666e-01 9.998779e-01
273 1 8.000000e-06 4.000000e-06 0.000000e+00 1.000000e+00 5.412947e-01 -1.000122e+00
274 1 8.500000e-06 4.000000e-06 0.000000e+00 1.000000e+00 5.369557e-01 9.998779e-01
275 1 9.000000e-06 4.000000e-06 0.000000e+00 1.000000e+00 5.388215e-01 -1.000122e+00
276 1 9.500000e-06 4.000000e-06 0.000000e+00 1.000000e+00 5.359405e-01 9.998779e-01
277 1 1.000000e-05 4.000000e-06 0.000000e+00 1.000000e+00 5.359315e-01 -1.000122e+00
278 1 1.050000e-05 4.000000e-06 0.000000e+00 1.000000e+00 5.351999e-01 9.998779e-01
279 1 1.100000e-05 4.000000e-06 0.000000e+00 1.000000e+00 5.342181e-01 -1.000122e+00
280 1 1.150000e-05 4.000000e-06 0.000000e+00 1.000000e+00 5.369483e-01 9.998779e-01
281 1 1.200000e-05 4.000000e-06 0.000000e+00 1.000000e+00 5.412710e-01 -1.000122e+00
282 1 1.250000e-05 4.000000e-06 0.000000e+00 1.000000e+00 5.406865e-01 9.998779e-01
283 1 1.300000e-05 4.000000e-06 0.000000e+00 1.000000e+00 5.394434e-01 -1.000122e+00
284 1 1.350000e-05 4.000000e-06 0.000000e+00 1.000000e+00 5.366037e-01 9.998779e-01
285 1 1.400000e-05 4.000000e-06 0.000000e+00 1.000000e+00 5.384844e-01 -1.000122e+00
286 1 1.450000e-05 4.000000e-06 0.000000e+00 1.000000e+00 5.377513e-01 9.998779e-01
287 1 1.500000e-05 4.000000e-06 0.000000e+00 1.000000e+00 5.371554e-01 -1.000122e+00
288 1 1.550000e-05 4.000000e-06 0.000000e+00 1.000000e+00 7.596306e-01 9.998779e-01
289 1 0.000000e+00 4.500000e-06 0.000000e+00 1.000000e+00 7.557678e-01 9.998779e-01
290 1 5.000000e-07 4.500000e-06 0.000000e+00 1.000000e+00 5.365245e-01 -1.000122e+00
291 1 1.000000e-06 4.500000e-06 0.000000e+00 1.000000e+00 5.365120e-01 9.998779e-01
292 1 1.500000e-06 4.500000e-06 0.000000e+00 1.000000e+00 5.365223e-01 -1.000122e+00
293 1 2.000000e-06 4.500000e-06 0.000000e+00 1.000000e+00 5.378510e-01 9.998779e-01
294 1 2.500000e-06 4.500000e-06 0.000000e+00 1.000000e+00 5.348611e-01 -1.000122e+00
295 1 3.000000e-06 4.500000e-06 0.000000e+00 1.000000e+00 5.473383e-01 9.998779e-01
296 1 3.500000e-06 4.500000e-06 0.000000e+00 1.000000e+00 5.418420e-01 -1.000122e+00
297 1 4.000000e-06 4.500000e-06 0.000000e+00 1.000000e+00 5.409474e-01 9.998779e-01
298 1 4.500000e-06 4.500000e-06 0.000000e+00 1.000000e+00 5.299912e-01 -1.000122e+00
299 1 5.000000e-06 4.500000e-06 0.000000e+00 1.000000e+00 5.411203e-01 9.998779e-01
300 1 5.500000e-06 4.500000e-06 0.000000e+00 1.000000e+00 5.393097e-01 -1.000122e+00
301 1 6.000000e-06 4.500000e-06 0.000000e+00 1.000000e+00 5.351768e-01 9.998779e-01
302 1 6.500000e-06 4.500000e-06 0.000000e+00 1.000000e+00 5.370743e-01 -1.000122e+00
303 1 7.000000e-06 4.500000e-06 0.000000e+00 1.000000e+00 5.364543e-01 9.998779e-01
304 1 7.500000e-06 4.500000e-06 0.000000e+00 1.000000e+00 5.381066e-01 -1.000122e+00
305 1 8.000000e-06 4.500000e-06 0.000000e+00 1.000000e+00 5.405990e-01 9.998779e-01
306 1 8.500000e-06 4.500000e-06 0.000000e+00 1.000000e+00 5.399545e-01 -1.000122e+00
307 1 9.000000e-06 4.500000e-06 0.000000e+00 1.000000e+00 5.359068e-01 9.998779e-01
308 1 9.500000e-06 4.500000e-06 0.000000e+00 1.000000e+00 5.382948e-01 -1.000122e+00
309 1 1.000000e-05 4.500000e-06 0.000000e+00 1.000000e+00 5.342311e-01 9.998779e-01
310 1 1.050000e-05 4.500000e-06 0.000000e+00 1.000000e+00 5.381095e-01 -1.000122e+00
311 1 1.100000e-05 4.500000e-06 0.000000e+00 1.000000e+00 5.337613e-01 9.998779e-01
312 1 1.150000e-05 4.500000e-06 0.000000e+00 1.000000e+00 5.351731e-01 -1.000122e+00
313 1 1.200000e-05 4.500000e-06 0.000000e+00 1.000000e+00 5.364799e-01 9.998779e-01
314 1 1.250000e-05 4.500000e-06 0.000000e+00 1.000000e+00 5.399440e-01 -1.000122e+00
315 1 1.300000e-05 4.500000e-06 0.000000e+00 1.000000e+00 5.384835e-01 9.998779e-01
316 1 1.350000e-05 4.500000e-06 0.000000e+00 1.000000e+00 5.352057e-01 -1.000122e+00
317 1 1.400000e-05 4.500000e-06 0.000000e+00 1.000000e+00 5.307348e-01 9.998779e-01
318 1 1.450000e-05 4.500000e-06 0.000000e+00 1.000000e+00 5.345767e-01 -1.000122e+00
319 1 1.500000e-05 4.500000e-06 0.000000e+00 1.000000e+00 5.403045e-01 9.998779e-01
320 1 1.550000e-05 4.500000e-06 0.000000e+00 1.000000e+00 7.624892e-01 -1.000122e+00
321 1 0.000000e+00 5.000000e-06 0.000000e+00 1.000000e+00 7.587343e-01 -1.000122e+00
322 1 5.000000e-07 5.000000e-06 0.000000e+00 1.000000e+00 5.364587e-01 9.998779e-01
323 1 1.000000e-06 5.000000e-06 0.000000e+00 1.000000e+00 5.364690e-01 -1.000122e+00
324 1 1.500000e-06 5.000000e-06 0.000000e+00 1.000000e+00 5.352061e-01 9.998779e-01
325 1 2.000000e-06 5.000000e-06 0.000000e+00 1.000000e+00 5.354561e-01 -1.000122e+00
326 1 2.500000e-06 5.000000e-06 0.000000e+00 1.000000e+00 5.359548e-01 9.998779e-01
327 1 3.000000e-06 5.000000e-06 0.000000e+00 1.000000e+00 5.411761e-01 -1.000122e+00
328 1 3.500000e-06 5.000000e-06 0.000000e+00 1.000000e+00 5.442020e-01 9.998779e-01
329 1 4.000000e-06 5.000000e-06 0.000000e+00 1.000000e+00 5.445664e-01 -1.000122e+00
330 1 4.500000e-06 5.000000e-06 0.000000e+00 1.000000e+00 5.264016e-01 9.998779e-01
331 1 5.000000e-06 5.000000e-06 0.000000e+00 1.000000e+00 5.341472e-01 -1.000122e+00
332 1 5.500000e-06 5.000000e-06 0.000000e+00 1.000000e+00 5.406565e-01 9.998779e-01
333 1 6.000000e-06 5.000000e-06 0.000000e+00 1.000000e+00 5.373906e-01 -1.000122e+00
334 1 6.500000e-06 5.000000e-06 0.000000e+00 1.000000e+00 5.364671e-01 9.998779e-01
335 1 7.000000e-06 5.000000e-06 0.000000e+00 1.000000e+00 5.359377e-01 -1.000122e+00
336 1 7.500000e-06 5.000000e-06 0.000000e+00 1.000000e+00 5.364881e-01 9.998779e-01
337 1 8.000000e-06 5.000000e-06 0.000000e+00 1.000000e+00 5.394539e-01 -1.000122e+00
338 1 8.500000e-06 5.000000e-06 0.000000e+00 1.000000e+00 5.407103e-01 9.998779e-01
339 1 9.000000e-06 5.000000e-06 0.000000e+00 1.000000e+00 5.359300e-01 -1.000122e+00
340 1 9.500000e-06 5.000000e-06 0.000000e+00 1.000000e+00 5.406726e-01 9.998779e-01
341 1 1.000000e-05 5.000000e-06 0.000000e+00 1.000000e+00 5.394153e-01 -1.000122e+00
342 1 1.050000e-05 5.000000e-06 0.000000e+00 1.000000e+00 5.399982e-01 9.998779e-01
343 1 1.100000e-05 5.000000e-06 0.000000e+00 1.000000e+00 5.412778e-01 -1.000122e+00
344 1 1.150000e-05 5.000000e-06 0.000000e+00 1.000000e+00 5.365916e-01 9.998779e-01
345 1 1.200000e-05 5.000000e-06 0.000000e+00 1.000000e+00 5.359264e-01 -1.000122e+00
346 1 1.250000e-05 5.000000e-06 0.000000e+00 1.000000e+00 5.394337e-01 9.998779e-01
347 1 1.300000e-05 5.000000e-06 0.000000e+00 1.000000e+00 5.424889e-01 -1.000122e+00
348 1 1.350000e-05 5.000000e-06 0.000000e+00 1.000000e+00 5.286472e-01 9.998779e-01
349 1 1.400000e-05 5.000000e-06 0.000000e+00 1.000000e+00 5.260401e-01 -1.000122e+00
350 1 1.450000e-05 5.000000e-06 0.000000e+00 1.000000e+00 5.314607e-01 9.998779e-01
351 1 1.500000e-05 5.000000e-06 0.000000e+00 1.000000e+00 5.331585e-01 -1.000122e+00
352 1 1.550000e-05 5.000000e-06 0.000000e+00 1.000000e+00 7.544845e-01 9.998779e-01
353 1 0.000000e+00 5.500000e-06 0.000000e+00 1.000000e+00 7.538987e-01 9.998779e-01
354 1 5.000000e-07 5.500000e-06 0.000000e+00 1.000000e+00 5.313241e-01 -1.000122e+00