ITEM: TIMESTEP
6
ITEM: NUMBER OF ATOMS
16384
ITEM: BOX BOUNDS pp pp pp
0.0 1.600000e-05
0.0 1.600000e-05
0.0 8.000000e-06
ITEM: ATOMS id type x y z crack plastic psi
1 1 0.000000e+00 0.000000e+00 0.000000e+00 9.999258e-01 1.000000e+00 -1.500000e+00
2 1 5.000000e-07 0.000000e+00 0.000000e+00 9.995868e-01 8.164966e-01 1.500000e+00
3 1 1.000000e-06 0.000000e+00 0.000000e+00 9.995423e-01 8.164966e-01 -1.500000e+00
4 1 1.500000e-06 0.000000e+00 0.000000e+00 9.989434e-01 8.164966e-01 1.500000e+00
5 1 2.000000e-06 0.000000e+00 0.000000e+00 9.988281e-01 8.164966e-01 -1.500000e+00
6 1 2.500000e-06 0.000000e+00 0.000000e+00 9.983506e-01 8.164966e-01 1.500000e+00
7 1 3.000000e-06 0.000000e+00 0.000000e+00 9.983679e-01 8.164966e-01 -1.500000e+00
8 1 3.500000e-06 0.000000e+00 0.000000e+00 9.980936e-01 8.164966e-01 1.500000e+00
9 1 4.000000e-06 0.000000e+00 0.000000e+00 9.981660e-01 8.164966e-01 -1.500000e+00
10 1 4.500000e-06 0.000000e+00 0.000000e+00 9.980112e-01 8.164966e-01 1.500000e+00
11 1 5.000000e-06 0.000000e+00 0.000000e+00 9.980793e-01 8.164966e-01 -1.500000e+00
12 1 5.500000e-06 0.000000e+00 0.000000e+00 9.979882e-01 8.164966e-01 1.500000e+00
13 1 6.000000e-06 0.000000e+00 0.000000e+00 9.980442e-01 8.164966e-01 -1.500000e+00
14 1 6.500000e-06 0.000000e+00 0.000000e+00 9.979906e-01 8.164966e-01 1.500000e+00
15 1 7.000000e-06 0.000000e+00 0.000000e+00 9.980391e-01 8.164966e-01 -1.500000e+00
16 1 7.500000e-06 0.000000e+00 0.000000e+00 9.980136e-01 8.164966e-01 1.500000e+00
17 1 8.000000e-06 0.000000e+00 0.000000e+00 9.980603e-01 8.164966e-01 -1.500000e+00
18 1 8.500000e-06 0.000000e+00 0.000000e+00 9.980584e-01 8.164966e-01 1.500000e+00
19 1 9.000000e-06 0.000000e+00 0.000000e+00 9.981067e-01 8.164966e-01 -1.500000e+00
20 1 9.500000e-06 0.000000e+00 0.000000e+00 9.981338e-01 8.164966e-01 1.500000e+00
21 1 1.000000e-05 0.000000e+00 0.000000e+00 9.981897e-01 8.164966e-01 -1.500000e+00
22 1 1.050000e-05 0.000000e+00 0.000000e+00 9.982594e-01 8.164966e-01 1.500000e+00
23 1 1.100000e-05 0.000000e+00 0.000000e+00 9.983318e-01 8.164966e-01 -1.500000e+00
24 1 1.150000e-05 0.000000e+00 0.000000e+00 9.984651e-01 8.164966e-01 1.500000e+00
25 1 1.200000e-05 0.000000e+00 0.000000e+00 9.985580e-01 8.164966e-01 -1.500000e+00
26 1 1.250000e-05 0.000000e+00 0.000000e+00 9.987798e-01 8.164966e-01 1.500000e+00
27 1 1.300000e-05 0.000000e+00 0.000000e+00 9.988650e-01 8.164966e-01 -1.500000e+00
28 1 1.350000e-05 0.000000e+00 0.000000e+00 9.992002e-01 8.164966e-01 1.500000e+00
29 1 1.400000e-05 0.000000e+00 0.000000e+00 9.992143e-01 8.164966e-01 -1.500000e+00
30 1 1.450000e-05 0.000000e+00 0.000000e+00 9.996478e-01 8.164966e-01 1.500000e+00
31 1 1.500000e-05 0.000000e+00 0.000000e+00 9.996075e-01 8.164966e-01 -1.500000e+00
32 1 1.550000e-05 0.000000e+00 0.000000e+00 9.999283e-01 1.000000e+00 1.500000e+00
33 1 0.000000e+00 5.000000e-07 0.000000e+00 9.999560e-01 8.164966e-01 1.500000e+00
34 1 5.000000e-07 5.000000e-07 0.000000e+00 9.993541e-01 5.773503e-01 -1.500000e+00
35 1 1.000000e-06 5.000000e-07 0.000000e+00 9.988890e-01 5.773503e-01 1.500000e+00
36 1 1.500000e-06 5.000000e-07 0.000000e+00 9.978393e-01 5.773503e-01 -1.500000e+00
37 1 2.000000e-06 5.000000e-07 0.000000e+00 9.975459e-01 5.773503e-01 1.500000e+00
38 1 2.500000e-06 5.000000e-07 0.000000e+00 9.969904e-01 5.773503e-01 -1.500000e+00
39 1 3.000000e-06 5.000000e-07 0.000000e+00 9.969684e-01 5.773503e-01 1.500000e+00
40 1 3.500000e-06 5.000000e-07 0.000000e+00 9.967346e-01 5.773503e-01 -1.500000e+00
41 1 4.000000e-06 5.000000e-07 0.000000e+00 9.967752e-01 5.773503e-01 1.500000e+00
42 1 4.500000e-06 5.000000e-07 0.000000e+00 9.967414e-01 5.773503e-01 -1.500000e+00
43 1 5.000000e-06 5.000000e-07 0.000000e+00 9.967658e-01 5.773503e-01 1.500000e+00
44 1 5.500000e-06 5.000000e-07 0.000000e+00 9.967472e-01 5.773503e-01 -1.500000e+00
45 1 6.000000e-06 5.000000e-07 0.000000e+00 9.967611e-01 5.773503e-01 1.500000e+00
46 1 6.500000e-06 5.000000e-07 0.000000e+00 9.967525e-01 5.773503e-01 -1.500000e+00
47 1 7.000000e-06 5.000000e-07 0.000000e+00 9.967611e-01 5.773503e-01 1.500000e+00
48 1 7.500000e-06 5.000000e-07 0.000000e+00 9.967609e-01 5.773503e-01 -1.500000e+00
49 1 8.000000e-06 5.000000e-07 0.000000e+00 9.967688e-01 5.773503e-01 1.500000e+00
50 1 8.500000e-06 5.000000e-07 0.000000e+00 9.967734e-01 5.773503e-01 -1.500000e+00
51 1 9.000000e-06 5.000000e-07 0.000000e+00 9.967829e-01 5.773503e-01 1.500000e+00
52 1 9.500000e-06 5.000000e-07 0.000000e+00 9.968273e-01 5.773503e-01 -1.500000e+00
53 1 1.000000e-05 5.000000e-07 0.000000e+00 9.968479e-01 5.773503e-01 1.500000e+00
54 1 1.050000e-05 5.000000e-07 0.000000e+00 9.970191e-01 5.773503e-01 -1.500000e+00
55 1 1.100000e-05 5.000000e-07 0.000000e+00 9.970833e-01 5.773503e-01 1.500000e+00
56 1 1.150000e-05 5.000000e-07 0.000000e+00 9.973366e-01 5.773503e-01 -1.500000e+00
57 1 1.200000e-05 5.000000e-07 0.000000e+00 9.974714e-01 5.773503e-01 1.500000e+00
58 1 1.250000e-05 5.000000e-07 0.000000e+00 9.978390e-01 5.773503e-01 -1.500000e+00
59 1 1.300000e-05 5.000000e-07 0.000000e+00 9.980503e-01 5.773503e-01 1.500000e+00
60 1 1.350000e-05 5.000000e-07 0.000000e+00 9.985706e-01 5.773503e-01 -1.500000e+00
61 1 1.400000e-05 5.000000e-07 0.000000e+00 9.987852e-01 5.773503e-01 1.500000e+00
62 1 1.450000e-05 5.000000e-07 0.000000e+00 9.994517e-01 5.773503e-01 -1.500000e+00
63 1 1.500000e-05 5.000000e-07 0.000000e+00 9.995359e-01 5.773503e-01 1.500000e+00
64 1 1.550000e-05 5.000000e-07 0.000000e+00 9.999692e-01 8.164966e-01 -1.500000e+00
65 1 0.000000e+00 1.000000e-06 0.000000e+00 9.999069e-01 8.164966e-01 -1.500000e+00
66 1 5.000000e-07 1.000000e-06 0.000000e+00 9.992130e-01 5.773503e-01 1.500000e+00
67 1 1.000000e-06 1.000000e-06 0.000000e+00 9.988667e-01 5.773503e-01 -1.500000e+00
68 1 1.500000e-06 1.000000e-06 0.000000e+00 9.975739e-01 5.773503e-01 1.500000e+00
69 1 2.000000e-06 1.000000e-06 0.000000e+00 9.974305e-01 5.773503e-01 -1.500000e+00
70 1 2.500000e-06 1.000000e-06 0.000000e+00 9.965614e-01 5.773503e-01 1.500000e+00
71 1 3.000000e-06 1.000000e-06 0.000000e+00 9.965647e-01 5.773503e-01 -1.500000e+00
72 1 3.500000e-06 1.000000e-06 0.000000e+00 9.964708e-01 5.773503e-01 1.500000e+00
73 1 4.000000e-06 1.000000e-06 0.000000e+00 9.964864e-01 5.773503e-01 -1.500000e+00
74 1 4.500000e-06 1.000000e-06 0.000000e+00 9.964399e-01 5.773503e-01 1.500000e+00
75 1 5.000000e-06 1.000000e-06 0.000000e+00 9.964561e-01 5.773503e-01 -1.500000e+00
76 1 5.500000e-06 1.000000e-06 0.000000e+00 9.964312e-01 5.773503e-01 1.500000e+00
77 1 6.000000e-06 1.000000e-06 0.000000e+00 9.964462e-01 5.773503e-01 -1.500000e+00
78 1 6.500000e-06 1.000000e-06 0.000000e+00 9.964334e-01 5.773503e-01 1.500000e+00
79 1 7.000000e-06 1.000000e-06 0.000000e+00 9.964465e-01 5.773503e-01 -1.500000e+00
80 1 7.500000e-06 1.000000e-06 0.000000e+00 9.964429e-01 5.773503e-01 1.500000e+00
81 1 8.000000e-06 1.000000e-06 0.000000e+00 9.964551e-01 5.773503e-01 -1.500000e+00
82 1 8.500000e-06 1.000000e-06 0.000000e+00 9.964592e-01 5.773503e-01 1.500000e+00
83 1 9.000000e-06 1.000000e-06 0.000000e+00 9.964719e-01 5.773503e-01 -1.500000e+00
84 1 9.500000e-06 1.000000e-06 0.000000e+00 9.964849e-01 5.773503e-01 1.500000e+00
85 1 1.000000e-05 1.000000e-06 0.000000e+00 9.964998e-01 5.773503e-01 -1.500000e+00
86 1 1.050000e-05 1.000000e-06 0.000000e+00 9.965252e-01 5.773503e-01 1.500000e+00
87 1 1.100000e-05 1.000000e-06 0.000000e+00 9.965414e-01 5.773503e-01 -1.500000e+00
88 1 1.150000e-05 1.000000e-06 0.000000e+00 9.965892e-01 5.773503e-01 1.500000e+00
89 1 1.200000e-05 1.000000e-06 0.000000e+00 9.966370e-01 5.773503e-01 -1.500000e+00
90 1 1.250000e-05 1.000000e-06 0.000000e+00 9.970936e-01 5.773503e-01 1.500000e+00
91 1 1.300000e-05 1.000000e-06 0.000000e+00 9.972314e-01 5.773503e-01 -1.500000e+00
92 1 1.350000e-05 1.000000e-06 0.000000e+00 9.980071e-01 5.773503e-01 1.500000e+00
93 1 1.400000e-05 1.000000e-06 0.000000e+00 9.982182e-01 5.773503e-01 -1.500000e+00
94 1 1.450000e-05 1.000000e-06 0.000000e+00 9.992250e-01 5.773503e-01 1.500000e+00
95 1 1.500000e-05 1.000000e-06 0.000000e+00 9.993515e-01 5.773503e-01 -1.500000e+00
96 1 1.550000e-05 1.000000e-06 0.000000e+00 9.999352e-01 8.164966e-01 1.500000e+00
97 1 0.000000e+00 1.500000e-06 0.000000e+00 9.999657e-01 8.164966e-01 1.500000e+00
98 1 5.000000e-07 1.500000e-06 0.000000e+00 9.993479e-01 5.773503e-01 -1.500000e+00
99 1 1.000000e-06 1.500000e-06 0.000000e+00 9.989166e-01 5.773503e-01 1.500000e+00
100 1 1.500000e-06 1.500000e-06 0.000000e+00 9.975757e-01 5.773503e-01 -1.500000e+00
101 1 2.000000e-06 1.500000e-06 0.000000e+00 9.971527e-01 5.773503e-01 1.500000e+00
102 1 2.500000e-06 1.500000e-06 0.000000e+00 9.965627e-01 5.773503e-01 -1.500000e+00
103 1 3.000000e-06 1.500000e-06 0.000000e+00 9.965661e-01 5.773503e-01 1.500000e+00
104 1 3.500000e-06 1.500000e-06 0.000000e+00 9.964978e-01 5.773503e-01 -1.500000e+00
105 1 4.000000e-06 1.500000e-06 0.000000e+00 9.965105e-01 5.773503e-01 1.500000e+00
106 1 4.500000e-06 1.500000e-06 0.000000e+00 9.964829e-01 5.773503e-01 -1.500000e+00
107 1 5.000000e-06 1.500000e-06 0.000000e+00 9.964976e-01 5.773503e-01 1.500000e+00
108 1 5.500000e-06 1.500000e-06 0.000000e+00 9.964849e-01 5.773503e-01 -1.500000e+00
109 1 6.000000e-06 1.500000e-06 0.000000e+00 9.964985e-01 5.773503e-01 1.500000e+00
110 1 6.500000e-06 1.500000e-06 0.000000e+00 9.964928e-01 5.773503e-01 -1.500000e+00
111 1 7.000000e-06 1.500000e-06 0.000000e+00 9.965049e-01 5.773503e-01 1.500000e+00
112 1 7.500000e-06 1.500000e-06 0.000000e+00 9.965044e-01 5.773503e-01 -1.500000e+00
113 1 8.000000e-06 1.500000e-06 0.000000e+00 9.965164e-01 5.773503e-01 1.500000e+00
114 1 8.500000e-06 1.500000e-06 0.000000e+00 9.965201e-01 5.773503e-01 -1.500000e+00
115 1 9.000000e-06 1.500000e-06 0.000000e+00 9.965336e-01 5.773503e-01 1.500000e+00
116 1 9.500000e-06 1.500000e-06 0.000000e+00 9.965426e-01 5.773503e-01 -1.500000e+00
117 1 1.000000e-05 1.500000e-06 0.000000e+00 9.965593e-01 5.773503e-01 1.500000e+00
118 1 1.050000e-05 1.500000e-06 0.000000e+00 9.965751e-01 5.773503e-01 -1.500000e+00
119 1 1.100000e-05 1.500000e-06 0.000000e+00 9.965955e-01 5.773503e-01 1.500000e+00
120 1 1.150000e-05 1.500000e-06 0.000000e+00 9.966256e-01 5.773503e-01 -1.500000e+00
121 1 1.200000e-05 1.500000e-06 0.000000e+00 9.967408e-01 5.773503e-01 1.500000e+00
122 1 1.250000e-05 1.500000e-06 0.000000e+00 9.970733e-01 5.773503e-01 -1.500000e+00
123 1 1.300000e-05 1.500000e-06 0.000000e+00 9.972777e-01 5.773503e-01 1.500000e+00
124 1 1.350000e-05 1.500000e-06 0.000000e+00 9.979380e-01 5.773503e-01 -1.500000e+00
125 1 1.400000e-05 1.500000e-06 0.000000e+00 9.982590e-01 5.773503e-01 1.500000e+00
126 1 1.450000e-05 1.500000e-06 0.000000e+00 9.992970e-01 5.773503e-01 -1.500000e+00
127 1 1.500000e-05 1.500000e-06 0.000000e+00 9.995244e-01 5.773503e-01 1.500000e+00
128 1 1.550000e-05 1.500000e-06 0.000000e+00 9.999762e-01 8.164966e-01 -1.500000e+00
129 1 0.000000e+00 2.000000e-06 0.000000e+00 9.999544e-01 8.164966e-01 -1.500000e+00
130 1 5.000000e-07 2.000000e-06 0.000000e+00 9.992996e-01 5.773503e-01 1.500000e+00
131 1 1.000000e-06 2.000000e-06 0.000000e+00 9.988211e-01 5.773503e-01 -1.500000e+00
132 1 1.500000e-06 2.000000e-06 0.000000e+00 9.974154e-01 5.773503e-01 1.500000e+00
133 1 2.000000e-06 2.000000e-06 0.000000e+00 9.971803e-01 5.773503e-01 -1.500000e+00
134 1 2.500000e-06 2.000000e-06 0.000000e+00 9.965056e-01 5.773503e-01 1.500000e+00
135 1 3.000000e-06 2.000000e-06 0.000000e+00 9.965388e-01 5.773503e-01 -1.500000e+00
136 1 3.500000e-06 2.000000e-06 0.000000e+00 9.964547e-01 5.773503e-01 1.500000e+00
137 1 4.000000e-06 2.000000e-06 0.000000e+00 9.964747e-01 5.773503e-01 -1.500000e+00
138 1 4.500000e-06 2.000000e-06 0.000000e+00 9.964358e-01 5.773503e-01 1.500000e+00
139 1 5.000000e-06 2.000000e-06 0.000000e+00 9.964469e-01 5.773503e-01 -1.500000e+00
140 1 5.500000e-06 2.000000e-06 0.000000e+00 9.964274e-01 5.773503e-01 1.500000e+00
141 1 6.000000e-06 2.000000e-06 0.000000e+00 9.964359e-01 5.773503e-01 -1.500000e+00
142 1 6.500000e-06 2.000000e-06 0.000000e+00 9.964264e-01 5.773503e-01 1.500000e+00
143 1 7.000000e-06 2.000000e-06 0.000000e+00 9.964340e-01 5.773503e-01 -1.500000e+00
144 1 7.500000e-06 2.000000e-06 0.000000e+00 9.964315e-01 5.773503e-01 1.500000e+00
145 1 8.000000e-06 2.000000e-06 0.000000e+00 9.964388e-01 5.773503e-01 -1.500000e+00
146 1 8.500000e-06 2.000000e-06 0.000000e+00 9.964421e-01 5.773503e-01 1.500000e+00
147 1 9.000000e-06 2.000000e-06 0.000000e+00 9.964491e-01 5.773503e-01 -1.500000e+00
148 1 9.500000e-06 2.000000e-06 0.000000e+00 9.964595e-01 5.773503e-01 1.500000e+00
149 1 1.000000e-05 2.000000e-06 0.000000e+00 9.964662e-01 5.773503e-01 -1.500000e+00
150 1 1.050000e-05 2.000000e-06 0.000000e+00 9.964865e-01 5.773503e-01 1.500000e+00
151 1 1.100000e-05 2.000000e-06 0.000000e+00 9.964947e-01 5.773503e-01 -1.500000e+00
152 1 1.150000e-05 2.000000e-06 0.000000e+00 9.965342e-01 5.773503e-01 1.500000e+00
153 1 1.200000e-05 2.000000e-06 0.000000e+00 9.965524e-01 5.773503e-01 -1.500000e+00
154 1 1.250000e-05 2.000000e-06 0.000000e+00 9.968156e-01 5.773503e-01 1.500000e+00
155 1 1.300000e-05 2.000000e-06 0.000000e+00 9.970339e-01 5.773503e-01 -1.500000e+00
156 1 1.350000e-05 2.000000e-06 0.000000e+00 9.977906e-01 5.773503e-01 1.500000e+00
157 1 1.400000e-05 2.000000e-06 0.000000e+00 9.981495e-01 5.773503e-01 -1.500000e+00
158 1 1.450000e-05 2.000000e-06 0.000000e+00 9.992336e-01 5.773503e-01 1.500000e+00
159 1 1.500000e-05 2.000000e-06 0.000000e+00 9.994759e-01 5.773503e-01 -1.500000e+00
160 1 1.550000e-05 2.000000e-06 0.000000e+00 9.999701e-01 8.164966e-01 1.500000e+00
161 1 0.000000e+00 2.500000e-06 0.000000e+00 9.999695e-01 8.164966e-01 1.500000e+00
162 1 5.000000e-07 2.500000e-06 0.000000e+00 9.993778e-01 5.773503e-01 -1.500000e+00
163 1 1.000000e-06 2.500000e-06 0.000000e+00 9.989551e-01 5.773503e-01 1.500000e+00
164 1 1.500000e-06 2.500000e-06 0.000000e+00 9.975049e-01 5.773503e-01 -1.500000e+00
165 1 2.000000e-06 2.500000e-06 0.000000e+00 9.971624e-01 5.773503e-01 1.500000e+00
166 1 2.500000e-06 2.500000e-06 0.000000e+00 9.965295e-01 5.773503e-01 -1.500000e+00
167 1 3.000000e-06 2.500000e-06 0.000000e+00 9.965513e-01 5.773503e-01 1.500000e+00
168 1 3.500000e-06 2.500000e-06 0.000000e+00 9.964763e-01 5.773503e-01 -1.500000e+00
169 1 4.000000e-06 2.500000e-06 0.000000e+00 9.964874e-01 5.773503e-01 1.500000e+00
170 1 4.500000e-06 2.500000e-06 0.000000e+00 9.964593e-01 5.773503e-01 -1.500000e+00
171 1 5.000000e-06 2.500000e-06 0.000000e+00 9.964652e-01 5.773503e-01 1.500000e+00
172 1 5.500000e-06 2.500000e-06 0.000000e+00 9.964542e-01 5.773503e-01 -1.500000e+00
173 1 6.000000e-06 2.500000e-06 0.000000e+00 9.964596e-01 5.773503e-01 1.500000e+00
174 1 6.500000e-06 2.500000e-06 0.000000e+00 9.964549e-01 5.773503e-01 -1.500000e+00
175 1 7.000000e-06 2.500000e-06 0.000000e+00 9.964613e-01 5.773503e-01 1.500000e+00
176 1 7.500000e-06 2.500000e-06 0.000000e+00 9.964603e-01 5.773503e-01 -1.500000e+00
177 1 8.000000e-06 2.500000e-06 0.000000e+00 9.964679e-01 5.773503e-01 1.500000e+00
178 1 8.500000e-06 2.500000e-06 0.000000e+00 9.964697e-01 5.773503e-01 -1.500000e+00
179 1 9.000000e-06 2.500000e-06 0.000000e+00 9.964781e-01 5.773503e-01 1.500000e+00
180 1 9.500000e-06 2.500000e-06 0.000000e+00 9.964833e-01 5.773503e-01 -1.500000e+00
181 1 1.000000e-05 2.500000e-06 0.000000e+00 9.964927e-01 5.773503e-01 1.500000e+00
182 1 1.050000e-05 2.500000e-06 0.000000e+00 9.965045e-01 5.773503e-01 -1.500000e+00
183 1 1.100000e-05 2.500000e-06 0.000000e+00 9.965167e-01 5.773503e-01 1.500000e+00
184 1 1.150000e-05 2.500000e-06 0.000000e+00 9.965454e-01 5.773503e-01 -1.500000e+00
185 1 1.200000e-05 2.500000e-06 0.000000e+00 9.965681e-01 5.773503e-01 1.500000e+00
186 1 1.250000e-05 2.500000e-06 0.000000e+00 9.967174e-01 5.773503e-01 -1.500000e+00
187 1 1.300000e-05 2.500000e-06 0.000000e+00 9.970108e-01 5.773503e-01 1.500000e+00
188 1 1.350000e-05 2.500000e-06 0.000000e+00 9.977730e-01 5.773503e-01 -1.500000e+00
189 1 1.400000e-05 2.500000e-06 0.000000e+00 9.982253e-01 5.773503e-01 1.500000e+00
190 1 1.450000e-05 2.500000e-06 0.000000e+00 9.993312e-01 5.773503e-01 -1.500000e+00
191 1 1.500000e-05 2.500000e-06 0.000000e+00 9.995857e-01 5.773503e-01 1.500000e+00
192 1 1.550000e-05 2.500000e-06 0.000000e+00 9.999812e-01 8.164966e-01 -1.500000e+00
193 1 0.000000e+00 3.000000e-06 0.000000e+00 9.999676e-01 8.164966e-01 -1.500000e+00
194 1 5.000000e-07 3.000000e-06 0.000000e+00 9.993624e-01 5.773503e-01 1.500000e+00
195 1 1.000000e-06 3.000000e-06 0.000000e+00 9.988892e-01 5.773503e-01 -1.500000e+00
196 1 1.500000e-06 3.000000e-06 0.000000e+00 9.974090e-01 5.773503e-01 1.500000e+00
197 1 2.000000e-06 3.000000e-06 0.000000e+00 9.970524e-01 5.773503e-01 -1.500000e+00
198 1 2.500000e-06 3.000000e-06 0.000000e+00 9.964848e-01 5.773503e-01 1.500000e+00
199 1 3.000000e-06 3.000000e-06 0.000000e+00 9.965191e-01 5.773503e-01 -1.500000e+00
200 1 3.500000e-06 3.000000e-06 0.000000e+00 9.964392e-01 5.773503e-01 1.500000e+00
201 1 4.000000e-06 3.000000e-06 0.000000e+00 9.964653e-01 5.773503e-01 -1.500000e+00
202 1 4.500000e-06 3.000000e-06 0.000000e+00 9.964315e-01 5.773503e-01 1.500000e+00
203 1 5.000000e-06 3.000000e-06 0.000000e+00 9.964453e-01 5.773503e-01 -1.500000e+00
204 1 5.500000e-06 3.000000e-06 0.000000e+00 9.964295e-01 5.773503e-01 1.500000e+00
205 1 6.000000e-06 3.000000e-06 0.000000e+00 9.964361e-01 5.773503e-01 -1.500000e+00
206 1 6.500000e-06 3.000000e-06 0.000000e+00 9.964287e-01 5.773503e-01 1.500000e+00
207 1 7.000000e-06 3.000000e-06 0.000000e+00 9.964326e-01 5.773503e-01 -1.500000e+00
208 1 7.500000e-06 3.000000e-06 0.000000e+00 9.964305e-01 5.773503e-01 1.500000e+00
209 1 8.000000e-06 3.000000e-06 0.000000e+00 9.964332e-01 5.773503e-01 -1.500000e+00
210 1 8.500000e-06 3.000000e-06 0.000000e+00 9.964357e-01 5.773503e-01 1.500000e+00
211 1 9.000000e-06 3.000000e-06 0.000000e+00 9.964387e-01 5.773503e-01 -1.500000e+00
212 1 9.500000e-06 3.000000e-06 0.000000e+00 9.964460e-01 5.773503e-01 1.500000e+00
213 1 1.000000e-05 3.000000e-06 0.000000e+00 9.964505e-01 5.773503e-01 -1.500000e+00
214 1 1.050000e-05 3.000000e-06 0.000000e+00 9.964667e-01 5.773503e-01 1.500000e+00
215 1 1.100000e-05 3.000000e-06 0.000000e+00 9.964782e-01 5.773503e-01 -1.500000e+00
216 1 1.150000e-05 3.000000e-06 0.000000e+00 9.965122e-01 5.773503e-01 1.500000e+00
217 1 1.200000e-05 3.000000e-06 0.000000e+00 9.965390e-01 5.773503e-01 -1.500000e+00
218 1 1.250000e-05 3.000000e-06 0.000000e+00 9.966370e-01 5.773503e-01 1.500000e+00
219 1 1.300000e-05 3.000000e-06 0.000000e+00 9.969322e-01 5.773503e-01 -1.500000e+00
220 1 1.350000e-05 3.000000e-06 0.000000e+00 9.977160e-01 5.773503e-01 1.500000e+00
221 1 1.400000e-05 3.000000e-06 0.000000e+00 9.981600e-01 5.773503e-01 -1.500000e+00
222 1 1.450000e-05 3.000000e-06 0.000000e+00 9.992974e-01 5.773503e-01 1.500000e+00
223 1 1.500000e-05 3.000000e-06 0.000000e+00 9.995636e-01 5.773503e-01 -1.500000e+00
224 1 1.550000e-05 3.000000e-06 0.000000e+00 9.999799e-01 8.164966e-01 1.500000e+00
225 1 0.000000e+00 3.500000e-06 0.000000e+00 9.999716e-01 8.164966e-01 1.500000e+00
226 1 5.000000e-07 3.500000e-06 0.000000e+00 9.994052e-01 5.773503e-01 -1.500000e+00
227 1 1.000000e-06 3.500000e-06 0.000000e+00 9.989828e-01 5.773503e-01 1.500000e+00
228 1 1.500000e-06 3.500000e-06 0.000000e+00 9.974901e-01 5.773503e-01 -1.500000e+00
229 1 2.000000e-06 3.500000e-06 0.000000e+00 9.971346e-01 5.773503e-01 1.500000e+00
230 1 2.500000e-06 3.500000e-06 0.000000e+00 9.965003e-01 5.773503e-01 -1.500000e+00
231 1 3.000000e-06 3.500000e-06 0.000000e+00 9.965314e-01 5.773503e-01 1.500000e+00
232 1 3.500000e-06 3.500000e-06 0.000000e+00 9.964483e-01 5.773503e-01 -1.500000e+00
233 1 4.000000e-06 3.500000e-06 0.000000e+00 9.964691e-01 5.773503e-01 1.500000e+00
234 1 4.500000e-06 3.500000e-06 0.000000e+00 9.964387e-01 5.773503e-01 -1.500000e+00
235 1 5.000000e-06 3.500000e-06 0.000000e+00 9.964478e-01 5.773503e-01 1.500000e+00
236 1 5.500000e-06 3.500000e-06 0.000000e+00 9.964362e-01 5.773503e-01 -1.500000e+00
237 1 6.000000e-06 3.500000e-06 0.000000e+00 9.964394e-01 5.773503e-01 1.500000e+00
238 1 6.500000e-06 3.500000e-06 0.000000e+00 9.964349e-01 5.773503e-01 -1.500000e+00
239 1 7.000000e-06 3.500000e-06 0.000000e+00 9.964372e-01 5.773503e-01 1.500000e+00
240 1 7.500000e-06 3.500000e-06 0.000000e+00 9.964358e-01 5.773503e-01 -1.500000e+00
241 1 8.000000e-06 3.500000e-06 0.000000e+00 9.964385e-01 5.773503e-01 1.500000e+00
242 1 8.500000e-06 3.500000e-06 0.000000e+00 9.964394e-01 5.773503e-01 -1.500000e+00
243 1 9.000000e-06 3.500000e-06 0.000000e+00 9.964433e-01 5.773503e-01 1.500000e+00
244 1 9.500000e-06 3.500000e-06 0.000000e+00 9.964477e-01 5.773503e-01 -1.500000e+00
245 1 1.000000e-05 3.500000e-06 0.000000e+00 9.964544e-01 5.773503e-01 1.500000e+00
246 1 1.050000e-05 3.500000e-06 0.000000e+00 9.964662e-01 5.773503e-01 -1.500000e+00
247 1 1.100000e-05 3.500000e-06 0.000000e+00 9.964806e-01 5.773503e-01 1.500000e+00
248 1 1.150000e-05 3.500000e-06 0.000000e+00 9.965121e-01 5.773503e-01 -1.500000e+00
249 1 1.200000e-05 3.500000e-06 0.000000e+00 9.965420e-01 5.773503e-01 1.500000e+00
250 1 1.250000e-05 3.500000e-06 0.000000e+00 9.966270e-01 5.773503e-01 -1.500000e+00
251 1 1.300000e-05 3.500000e-06 0.000000e+00 9.969515e-01 5.773503e-01 1.500000e+00
252 1 1.350000e-05 3.500000e-06 0.000000e+00 9.977817e-01 5.773503e-01 -1.500000e+00
253 1 1.400000e-05 3.500000e-06 0.000000e+00 9.982514e-01 5.773503e-01 1.500000e+00
254 1 1.450000e-05 3.500000e-06 0.000000e+00 9.993674e-01 5.773503e-01 -1.500000e+00
255 1 1.500000e-05 3.500000e-06 0.000000e+00 9.996149e-01 5.773503e-01 1.500000e+00
256 1 1.550000e-05 3.500000e-06 0.000000e+00 9.999829e-01 8.164966e-01 -1.500000e+00
257 1 0.000000e+00 4.000000e-06 0.000000e+00 9.999711e-01 8.164966e-01 -1.500000e+00
258 1 5.000000e-07 4.000000e-06 0.000000e+00 9.993998e-01 5.773503e-01 1.500000e+00
259 1 1.000000e-06 4.000000e-06 0.000000e+00 9.989595e-01 5.773503e-01 -1.500000e+00
260 1 1.500000e-06 4.000000e-06 0.000000e+00 9.974584e-01 5.773503e-01 1.500000e+00
261 1 2.000000e-06 4.000000e-06 0.000000e+00 9.970505e-01 5.773503e-01 -1.500000e+00
262 1 2.500000e-06 4.000000e-06 0.000000e+00 9.964783e-01 5.773503e-01 1.500000e+00
263 1 3.000000e-06 4.000000e-06 0.000000e+00 9.965071e-01 5.773503e-01 -1.500000e+00
264 1 3.500000e-06 4.000000e-06 0.000000e+00 9.964228e-01 5.773503e-01 1.500000e+00
265 1 4.000000e-06 4.000000e-06 0.000000e+00 9.964485e-01 5.773503e-01 -1.500000e+00
266 1 4.500000e-06 4.000000e-06 0.000000e+00 9.964159e-01 5.773503e-01 1.500000e+00
267 1 5.000000e-06 4.000000e-06 0.000000e+00 9.964323e-01 5.773503e-01 -1.500000e+00
268 1 5.500000e-06 4.000000e-06 0.000000e+00 9.964184e-01 5.773503e-01 1.500000e+00
269 1 6.000000e-06 4.000000e-06 0.000000e+00 9.964258e-01 5.773503e-01 -1.500000e+00
270 1 6.500000e-06 4.000000e-06 0.000000e+00 9.964196e-01 5.773503e-01 1.500000e+00
271 1 7.000000e-06 4.000000e-06 0.000000e+00 9.964230e-01 5.773503e-01 -1.500000e+00
272 1 7.500000e-06 4.000000e-06 0.000000e+00 9.964211e-01 5.773503e-01 1.500000e+00
273 1 8.000000e-06 4.000000e-06 0.000000e+00 9.964227e-01 5.773503e-01 -1.500000e+00
274 1 8.500000e-06 4.000000e-06 0.000000e+00 9.964243e-01 5.773503e-01 1.500000e+00
275 1 9.000000e-06 4.000000e-06 0.000000e+00 9.964266e-01 5.773503e-01 -1.500000e+00
276 1 9.500000e-06 4.000000e-06 0.000000e+00 9.964326e-01 5.773503e-01 1.500000e+00
277 1 1.000000e-05 4.000000e-06 0.000000e+00 9.964388e-01 5.773503e-01 -1.500000e+00
278 1 1.050000e-05 4.000000e-06 0.000000e+00 9.964529e-01 5.773503e-01 1.500000e+00
279 1 1.100000e-05 4.000000e-06 0.000000e+00 9.964679e-01 5.773503e-01 -1.500000e+00
280 1 1.150000e-05 4.000000e-06 0.000000e+00 9.965009e-01 5.773503e-01 1.500000e+00
281 1 1.200000e-05 4.000000e-06 0.000000e+00 9.965307e-01 5.773503e-01 -1.500000e+00
282 1 1.250000e-05 4.000000e-06 0.000000e+00 9.966160e-01 5.773503e-01 1.500000e+00
283 1 1.300000e-05 4.000000e-06 0.000000e+00 9.969006e-01 5.773503e-01 -1.500000e+00
284 1 1.350000e-05 4.000000e-06 0.000000e+00 9.977386e-01 5.773503e-01 1.500000e+00
285 1 1.400000e-05 4.000000e-06 0.000000e+00 9.982145e-01 5.773503e-01 -1.500000e+00
286 1 1.450000e-05 4.000000e-06 0.000000e+00 9.993513e-01 5.773503e-01 1.500000e+00
287 1 1.500000e-05 4.000000e-06 0.000000e+00 9.996091e-01 5.773503e-01 -1.500000e+00
288 1 1.550000e-05 4.000000e-06 0.000000e+00 9.999828e-01 8.164966e-01 1.500000e+00
289 1 0.000000e+00 4.500000e-06 0.000000e+00 9.999723e-01 8.164966e-01 1.500000e+00
290 1 5.000000e-07 4.500000e-06 0.000000e+00 9.994202e-01 5.773503e-01 -1.500000e+00
291 1 1.000000e-06 4.500000e-06 0.000000e+00 9.990069e-01 5.773503e-01 1.500000e+00
292 1 1.500000e-06 4.500000e-06 0.000000e+00 9.975134e-01 5.773503e-01 -1.500000e+00
293 1 2.000000e-06 4.500000e-06 0.000000e+00 9.971358e-01 5.773503e-01 1.500000e+00
294 1 2.500000e-06 4.500000e-06 0.000000e+00 9.964883e-01 5.773503e-01 -1.500000e+00
295 1 3.000000e-06 4.500000e-06 0.000000e+00 9.965180e-01 5.773503e-01 1.500000e+00
296 1 3.500000e-06 4.500000e-06 0.000000e+00 9.964268e-01 5.773503e-01 -1.500000e+00
297 1 4.000000e-06 4.500000e-06 0.000000e+00 9.964508e-01 5.773503e-01 1.500000e+00
298 1 4.500000e-06 4.500000e-06 0.000000e+00 9.964170e-01 5.773503e-01 -1.500000e+00
299 1 5.000000e-06 4.500000e-06 0.000000e+00 9.964304e-01 5.773503e-01 1.500000e+00
300 1 5.500000e-06 4.500000e-06 0.000000e+00 9.964176e-01 5.773503e-01 -1.500000e+00
301 1 6.000000e-06 4.500000e-06 0.000000e+00 9.964228e-01 5.773503e-01 1.500000e+00
302 1 6.500000e-06 4.500000e-06 0.000000e+00 9.964181e-01 5.773503e-01 -1.500000e+00
303 1 7.000000e-06 4.500000e-06 0.000000e+00 9.964202e-01 5.773503e-01 1.500000e+00
304 1 7.500000e-06 4.500000e-06 0.000000e+00 9.964191e-01 5.773503e-01 -1.500000e+00
305 1 8.000000e-06 4.500000e-06 0.000000e+00 9.964206e-01 5.773503e-01 1.500000e+00
306 1 8.500000e-06 4.500000e-06 0.000000e+00 9.964214e-01 5.773503e-01 -1.500000e+00
307 1 9.000000e-06 4.500000e-06 0.000000e+00 9.964241e-01 5.773503e-01 1.500000e+00
308 1 9.500000e-06 4.500000e-06 0.000000e+00 9.964286e-01 5.773503e-01 -1.500000e+00
309 1 1.000000e-05 4.500000e-06 0.000000e+00 9.964361e-01 5.773503e-01 1.500000e+00
310 1 1.050000e-05 4.500000e-06 0.000000e+00 9.964491e-01 5.773503e-01 -1.500000e+00
311 1 1.100000e-05 4.500000e-06 0.000000e+00 9.964657e-01 5.773503e-01 1.500000e+00
312 1 1.150000e-05 4.500000e-06 0.000000e+00 9.965010e-01 5.773503e-01 -1.500000e+00
313 1 1.200000e-05 4.500000e-06 0.000000e+00 9.965327e-01 5.773503e-01 1.500000e+00
314 1 1.250000e-05 4.500000e-06 0.000000e+00 9.966250e-01 5.773503e-01 -1.500000e+00
315 1 1.300000e-05 4.500000e-06 0.000000e+00 9.969425e-01 5.773503e-01 1.500000e+00
316 1 1.350000e-05 4.500000e-06 0.000000e+00 9.978141e-01 5.773503e-01 -1.500000e+00
317 1 1.400000e-05 4.500000e-06 0.000000e+00 9.982785e-01 5.773503e-01 1.500000e+00
318 1 1.450000e-05 4.500000e-06 0.000000e+00 9.993893e-01 5.773503e-01 -1.500000e+00
319 1 1.500000e-05 4.500000e-06 0.000000e+00 9.996307e-01 5.773503e-01 1.500000e+00
320 1 1.550000e-05 4.500000e-06 0.000000e+00 9.999836e-01 8.164966e-01 -1.500000e+00
321 1 0.000000e+00 5.000000e-06 0.000000e+00 9.999723e-01 8.164966e-01 -1.500000e+00
322 1 5.000000e-07 5.000000e-06 0.000000e+00 9.994199e-01 5.773503e-01 1.500000e+00
323 1 1.000000e-06 5.000000e-06 0.000000e+00 9.990000e-01 5.773503e-01 -1.500000e+00
324 1 1.500000e-06 5.000000e-06 0.000000e+00 9.975040e-01 5.773503e-01 1.500000e+00
325 1 2.000000e-06 5.000000e-06 0.000000e+00 9.970971e-01 5.773503e-01 -1.500000e+00
326 1 2.500000e-06 5.000000e-06 0.000000e+00 9.964792e-01 5.773503e-01 1.500000e+00
327 1 3.000000e-06 5.000000e-06 0.000000e+00 9.965050e-01 5.773503e-01 -1.500000e+00
328 1 3.500000e-06 5.000000e-06 0.000000e+00 9.964139e-01 5.773503e-01 1.500000e+00
329 1 4.000000e-06 5.000000e-06 0.000000e+00 9.964372e-01 5.773503e-01 -1.500000e+00
330 1 4.500000e-06 5.000000e-06 0.000000e+00 9.964021e-01 5.773503e-01 1.500000e+00
331 1 5.000000e-06 5.000000e-06 0.000000e+00 9.964189e-01 5.773503e-01 -1.500000e+00
332 1 5.500000e-06 5.000000e-06 0.000000e+00 9.964053e-01 5.773503e-01 1.500000e+00
333 1 6.000000e-06 5.000000e-06 0.000000e+00 9.964135e-01 5.773503e-01 -1.500000e+00
334 1 6.500000e-06 5.000000e-06 0.000000e+00 9.964080e-01 5.773503e-01 1.500000e+00
335 1 7.000000e-06 5.000000e-06 0.000000e+00 9.964126e-01 5.773503e-01 -1.500000e+00
336 1 7.500000e-06 5.000000e-06 0.000000e+00 9.964114e-01 5.773503e-01 1.500000e+00
337 1 8.000000e-06 5.000000e-06 0.000000e+00 9.964144e-01 5.773503e-01 -1.500000e+00
338 1 8.500000e-06 5.000000e-06 0.000000e+00 9.964158e-01 5.773503e-01 1.500000e+00
339 1 9.000000e-06 5.000000e-06 0.000000e+00 9.964189e-01 5.773503e-01 -1.500000e+00
340 1 9.500000e-06 5.000000e-06 0.000000e+00 9.964238e-01 5.773503e-01 1.500000e+00
341 1 1.000000e-05 5.000000e-06 0.000000e+00 9.964313e-01 5.773503e-01 -1.500000e+00
342 1 1.050000e-05 5.000000e-06 0.000000e+00 9.964452e-01 5.773503e-01 1.500000e+00
343 1 1.100000e-05 5.000000e-06 0.000000e+00 9.964610e-01 5.773503e-01 -1.500000e+00
344 1 1.150000e-05 5.000000e-06 0.000000e+00 9.964963e-01 5.773503e-01 1.500000e+00
345 1 1.200000e-05 5.000000e-06 0.000000e+00 9.965254e-01 5.773503e-01 -1.500000e+00
346 1 1.250000e-05 5.000000e-06 0.000000e+00 9.966176e-01 5.773503e-01 1.500000e+00
347 1 1.300000e-05 5.000000e-06 0.000000e+00 9.969104e-01 5.773503e-01 -1.500000e+00
348 1 1.350000e-05 5.000000e-06 0.000000e+00 9.977864e-01 5.773503e-01 1.500000e+00
349 1 1.400000e-05 5.000000e-06 0.000000e+00 9.982688e-01 5.773503e-01 -1.500000e+00
350 1 1.450000e-05 5.000000e-06 0.000000e+00 9.993836e-01 5.773503e-01 1.500000e+00
351 1 1.500000e-05 5.000000e-06 0.000000e+00 9.996299e-01 5.773503e-01 -1.500000e+00
352 1 1.550000e-05 5.000000e-06 0.000000e+00 9.999837e-01 8.164966e-01 1.500000e+00
353 1 0.000000e+00 5.500000e-06 0.000000e+00 9.999725e-01 8.164966e-01 1.500000e+00
354 1 5.000000e-07 5.500000e-06 0.000000e+00 9.994283e-01 5.773503e-01 -1.500000e+00