ITEM: TIMESTEP
3
ITEM: NUMBER OF ATOMS
16384
ITEM: BOX BOUNDS pp pp pp
0.0 1.600000e-05
0.0 1.600000e-05
0.0 8.000000e-06
ITEM: ATOMS id type x y z crack plastic psi
1 1 0.000000e+00 0.000000e+00 0.000000e+00 6.429656e-02 3.579216e-01 9.982910e-01
2 1 5.000000e-07 0.000000e+00 0.000000e+00 6.429656e-02 4.069424e-01 9.982910e-01
3 1 1.000000e-06 0.000000e+00 0.000000e+00 6.429656e-02 3.539604e-01 -1.001709e+00
4 1 1.500000e-06 0.000000e+00 0.000000e+00 6.429656e-02 3.190643e-01 9.982910e-01
5 1 2.000000e-06 0.000000e+00 0.000000e+00 6.429656e-02 3.188442e-01 -1.001709e+00
6 1 2.500000e-06 0.000000e+00 0.000000e+00 6.429656e-02 3.014326e-01 9.982910e-01
7 1 3.000000e-06 0.000000e+00 0.000000e+00 6.429656e-02 3.347443e-01 -1.001709e+00
8 1 3.500000e-06 0.000000e+00 0.000000e+00 6.429656e-02 3.346421e-01 9.982910e-01
9 1 4.000000e-06 0.000000e+00 0.000000e+00 6.429656e-02 3.345496e-01 -1.001709e+00
10 1 4.500000e-06 0.000000e+00 0.000000e+00 6.429656e-02 2.822702e-01 9.982910e-01
11 1 5.000000e-06 0.000000e+00 0.000000e+00 6.429656e-02 3.146117e-01 -1.001709e+00
12 1 5.500000e-06 0.000000e+00 0.000000e+00 6.429656e-02 2.761917e-01 9.982910e-01
13 1 6.000000e-06 0.000000e+00 0.000000e+00 6.429656e-02 2.755602e-01 -1.001709e+00
14 1 6.500000e-06 0.000000e+00 0.000000e+00 6.429656e-02 3.345482e-01 9.982910e-01
15 1 7.000000e-06 0.000000e+00 0.000000e+00 6.429656e-02 3.903447e-01 -1.001709e+00
16 1 7.500000e-06 0.000000e+00 0.000000e+00 6.429656e-02 3.439449e-01 9.982910e-01
17 1 8.000000e-06 0.000000e+00 0.000000e+00 6.429656e-02 3.081244e-01 9.982910e-01
18 1 8.500000e-06 0.000000e+00 0.000000e+00 6.429656e-02 3.454114e-01 -1.001709e+00
19 1 9.000000e-06 0.000000e+00 0.000000e+00 6.429656e-02 3.273257e-01 9.982910e-01
20 1 9.500000e-06 0.000000e+00 0.000000e+00 6.429656e-02 3.111606e-01 -1.001709e+00
21 1 1.000000e-05 0.000000e+00 0.000000e+00 6.429656e-02 3.805329e-01 9.982910e-01
22 1 1.050000e-05 0.000000e+00 0.000000e+00 6.429656e-02 3.464148e-01 -1.001709e+00
23 1 1.100000e-05 0.000000e+00 0.000000e+00 6.429656e-02 4.000760e-01 9.982910e-01
24 1 1.150000e-05 0.000000e+00 0.000000e+00 6.429656e-02 4.002728e-01 -1.001709e+00
25 1 1.200000e-05 0.000000e+00 0.000000e+00 6.429656e-02 3.447249e-01 9.982910e-01
26 1 1.250000e-05 0.000000e+00 0.000000e+00 6.429656e-02 3.302632e-01 -1.001709e+00
27 1 1.300000e-05 0.000000e+00 0.000000e+00 6.429656e-02 3.578053e-01 9.982910e-01
28 1 1.350000e-05 0.000000e+00 0.000000e+00 6.429656e-02 3.382268e-01 -1.001709e+00
29 1 1.400000e-05 0.000000e+00 0.000000e+00 6.429656e-02 3.233286e-01 9.982910e-01
30 1 1.450000e-05 0.000000e+00 0.000000e+00 6.429656e-02 3.187410e-01 -1.001709e+00
31 1 1.500000e-05 0.000000e+00 0.000000e+00 6.429656e-02 3.378450e-01 9.982910e-01
32 1 1.550000e-05 0.000000e+00 0.000000e+00 6.429656e-02 4.098603e-01 -1.001709e+00
33 1 0.000000e+00 5.000000e-07 0.000000e+00 6.429656e-02 2.800030e-01 -1.001709e+00
34 1 5.000000e-07 5.000000e-07 0.000000e+00 6.429656e-02 2.088839e-01 -1.001709e+00
35 1 1.000000e-06 5.000000e-07 0.000000e+00 6.429656e-02 1.567596e-01 9.982910e-01
36 1 1.500000e-06 5.000000e-07 0.000000e+00 6.429656e-02 1.754528e-01 -1.001709e+00
37 1 2.000000e-06 5.000000e-07 0.000000e+00 6.429656e-02 1.731229e-01 9.982910e-01
38 1 2.500000e-06 5.000000e-07 0.000000e+00 6.429656e-02 1.941732e-01 -1.001709e+00
39 1 3.000000e-06 5.000000e-07 0.000000e+00 6.429656e-02 1.498672e-01 9.982910e-01
40 1 3.500000e-06 5.000000e-07 0.000000e+00 6.429656e-02 1.987559e-01 -1.001709e+00
41 1 4.000000e-06 5.000000e-07 0.000000e+00 6.429656e-02 2.021395e-01 9.982910e-01
42 1 4.500000e-06 5.000000e-07 0.000000e+00 6.429656e-02 1.736059e-01 -1.001709e+00
43 1 5.000000e-06 5.000000e-07 0.000000e+00 6.429656e-02 1.184403e-01 9.982910e-01
44 1 5.500000e-06 5.000000e-07 0.000000e+00 6.429656e-02 7.449680e-02 -1.001709e+00
45 1 6.000000e-06 5.000000e-07 0.000000e+00 6.429656e-02 1.183827e-01 9.982910e-01
46 1 6.500000e-06 5.000000e-07 0.000000e+00 6.429656e-02 2.560633e-01 -1.001709e+00
47 1 7.000000e-06 5.000000e-07 0.000000e+00 6.429656e-02 2.756538e-01 9.982910e-01
48 1 7.500000e-06 5.000000e-07 0.000000e+00 6.429656e-02 2.863169e-01 -1.001709e+00
49 1 8.000000e-06 5.000000e-07 0.000000e+00 6.429656e-02 2.201973e-01 -1.001709e+00
50 1 8.500000e-06 5.000000e-07 0.000000e+00 6.429656e-02 2.464083e-01 9.982910e-01
51 1 9.000000e-06 5.000000e-07 0.000000e+00 6.429656e-02 1.991274e-01 -1.001709e+00
52 1 9.500000e-06 5.000000e-07 0.000000e+00 6.429656e-02 2.507793e-01 9.982910e-01
53 1 1.000000e-05 5.000000e-07 0.000000e+00 6.429656e-02 1.946707e-01 -1.001709e+00
54 1 1.050000e-05 5.000000e-07 0.000000e+00 6.429656e-02 2.499946e-01 9.982910e-01
55 1 1.100000e-05 5.000000e-07 0.000000e+00 6.429656e-02 2.655146e-01 -1.001709e+00
56 1 1.150000e-05 5.000000e-07 0.000000e+00 6.429656e-02 2.160749e-01 9.982910e-01
57 1 1.200000e-05 5.000000e-07 0.000000e+00 6.429656e-02 1.621895e-01 -1.001709e+00
58 1 1.250000e-05 5.000000e-07 0.000000e+00 6.429656e-02 2.328104e-01 9.982910e-01
59 1 1.300000e-05 5.000000e-07 0.000000e+00 6.429656e-02 2.709473e-01 -1.001709e+00
60 1 1.350000e-05 5.000000e-07 0.000000e+00 6.429656e-02 2.370548e-01 9.982910e-01
61 1 1.400000e-05 5.000000e-07 0.000000e+00 6.429656e-02 2.177118e-01 -1.001709e+00
62 1 1.450000e-05 5.000000e-07 0.000000e+00 6.429656e-02 2.371490e-01 9.982910e-01
63 1 1.500000e-05 5.000000e-07 0.000000e+00 6.429656e-02 2.801427e-01 -1.001709e+00
64 1 1.550000e-05 5.000000e-07 0.000000e+00 6.429656e-02 3.347777e-01 9.982910e-01
65 1 0.000000e+00 1.000000e-06 0.000000e+00 6.429656e-02 3.187290e-01 9.982910e-01
66 1 5.000000e-07 1.000000e-06 0.000000e+00 6.429656e-02 2.700091e-01 -1.001709e+00
67 1 1.000000e-06 1.000000e-06 0.000000e+00 6.429656e-02 1.671586e-01 -1.001709e+00
68 1 1.500000e-06 1.000000e-06 0.000000e+00 6.429656e-02 1.567672e-01 9.982910e-01
69 1 2.000000e-06 1.000000e-06 0.000000e+00 6.429656e-02 1.483513e-01 -1.001709e+00
70 1 2.500000e-06 1.000000e-06 0.000000e+00 6.429656e-02 1.497974e-01 9.982910e-01
71 1 3.000000e-06 1.000000e-06 0.000000e+00 6.429656e-02 1.097475e-01 -1.001709e+00
72 1 3.500000e-06 1.000000e-06 0.000000e+00 6.429656e-02 2.022360e-01 9.982910e-01
73 1 4.000000e-06 1.000000e-06 0.000000e+00 6.429656e-02 2.645069e-01 -1.001709e+00
74 1 4.500000e-06 1.000000e-06 0.000000e+00 6.429656e-02 3.056005e-01 -1.001709e+00
75 1 5.000000e-06 1.000000e-06 0.000000e+00 6.429656e-02 2.839364e-01 9.982910e-01
76 1 5.500000e-06 1.000000e-06 0.000000e+00 6.429656e-02 2.645058e-01 -1.001709e+00
77 1 6.000000e-06 1.000000e-06 0.000000e+00 6.429656e-02 2.897196e-01 9.982910e-01
78 1 6.500000e-06 1.000000e-06 0.000000e+00 6.429656e-02 1.672963e-01 9.982910e-01
79 1 7.000000e-06 1.000000e-06 0.000000e+00 6.429656e-02 9.732040e-02 -1.001709e+00
80 1 7.500000e-06 1.000000e-06 0.000000e+00 6.429656e-02 1.677153e-01 -1.001709e+00
81 1 8.000000e-06 1.000000e-06 0.000000e+00 6.429656e-02 2.026474e-01 9.982910e-01
82 1 8.500000e-06 1.000000e-06 0.000000e+00 6.429656e-02 2.305500e-01 -1.001709e+00
83 1 9.000000e-06 1.000000e-06 0.000000e+00 6.429656e-02 2.411570e-01 9.982910e-01
84 1 9.500000e-06 1.000000e-06 0.000000e+00 6.429656e-02 2.931398e-01 -1.001709e+00
85 1 1.000000e-05 1.000000e-06 0.000000e+00 6.429656e-02 1.756199e-01 9.982910e-01
86 1 1.050000e-05 1.000000e-06 0.000000e+00 6.429656e-02 2.352634e-01 -1.001709e+00
87 1 1.100000e-05 1.000000e-06 0.000000e+00 6.429656e-02 2.414781e-01 9.982910e-01
88 1 1.150000e-05 1.000000e-06 0.000000e+00 6.429656e-02 2.254643e-01 -1.001709e+00
89 1 1.200000e-05 1.000000e-06 0.000000e+00 6.429656e-02 2.186508e-01 9.982910e-01
90 1 1.250000e-05 1.000000e-06 0.000000e+00 6.429656e-02 2.691219e-01 -1.001709e+00
91 1 1.300000e-05 1.000000e-06 0.000000e+00 6.429656e-02 2.240425e-01 9.982910e-01
92 1 1.350000e-05 1.000000e-06 0.000000e+00 6.429656e-02 2.227506e-01 -1.001709e+00
93 1 1.400000e-05 1.000000e-06 0.000000e+00 6.429656e-02 2.261639e-01 9.982910e-01
94 1 1.450000e-05 1.000000e-06 0.000000e+00 6.429656e-02 2.693103e-01 -1.001709e+00
95 1 1.500000e-05 1.000000e-06 0.000000e+00 6.429656e-02 2.605431e-01 9.982910e-01
96 1 1.550000e-05 1.000000e-06 0.000000e+00 6.429656e-02 3.782143e-01 -1.001709e+00
97 1 0.000000e+00 1.500000e-06 0.000000e+00 6.429656e-02 3.345133e-01 -1.001709e+00
98 1 5.000000e-07 1.500000e-06 0.000000e+00 6.429656e-02 2.685108e-01 9.982910e-01
99 1 1.000000e-06 1.500000e-06 0.000000e+00 6.429656e-02 1.972492e-01 9.982910e-01
100 1 1.500000e-06 1.500000e-06 0.000000e+00 6.429656e-02 2.711002e-01 -1.001709e+00
101 1 2.000000e-06 1.500000e-06 0.000000e+00 6.429656e-02 2.759251e-01 9.982910e-01
102 1 2.500000e-06 1.500000e-06 0.000000e+00 6.429656e-02 2.561055e-01 -1.001709e+00
103 1 3.000000e-06 1.500000e-06 0.000000e+00 6.429656e-02 2.365627e-01 9.982910e-01
104 1 3.500000e-06 1.500000e-06 0.000000e+00 6.429656e-02 2.365303e-01 -1.001709e+00
105 1 4.000000e-06 1.500000e-06 0.000000e+00 6.429656e-02 2.697613e-01 9.982910e-01
106 1 4.500000e-06 1.500000e-06 0.000000e+00 6.429656e-02 2.560416e-01 9.982910e-01
107 1 5.000000e-06 1.500000e-06 0.000000e+00 6.429656e-02 2.654343e-01 -1.001709e+00
108 1 5.500000e-06 1.500000e-06 0.000000e+00 6.429656e-02 2.367869e-01 9.982910e-01
109 1 6.000000e-06 1.500000e-06 0.000000e+00 6.429656e-02 2.183062e-01 -1.001709e+00
110 1 6.500000e-06 1.500000e-06 0.000000e+00 6.429656e-02 2.583872e-01 9.982910e-01
111 1 7.000000e-06 1.500000e-06 0.000000e+00 6.429656e-02 2.441985e-01 -1.001709e+00
112 1 7.500000e-06 1.500000e-06 0.000000e+00 6.429656e-02 2.500334e-01 9.982910e-01
113 1 8.000000e-06 1.500000e-06 0.000000e+00 6.429656e-02 2.633547e-01 -1.001709e+00
114 1 8.500000e-06 1.500000e-06 0.000000e+00 6.429656e-02 2.418684e-01 9.982910e-01
115 1 9.000000e-06 1.500000e-06 0.000000e+00 6.429656e-02 2.230324e-01 -1.001709e+00
116 1 9.500000e-06 1.500000e-06 0.000000e+00 6.429656e-02 2.158990e-01 9.982910e-01
117 1 1.000000e-05 1.500000e-06 0.000000e+00 6.429656e-02 1.775847e-01 -1.001709e+00
118 1 1.050000e-05 1.500000e-06 0.000000e+00 6.429656e-02 2.240491e-01 9.982910e-01
119 1 1.100000e-05 1.500000e-06 0.000000e+00 6.429656e-02 2.365407e-01 -1.001709e+00
120 1 1.150000e-05 1.500000e-06 0.000000e+00 6.429656e-02 1.776460e-01 9.982910e-01
121 1 1.200000e-05 1.500000e-06 0.000000e+00 6.429656e-02 2.796005e-01 -1.001709e+00
122 1 1.250000e-05 1.500000e-06 0.000000e+00 6.429656e-02 2.896028e-01 9.982910e-01
123 1 1.300000e-05 1.500000e-06 0.000000e+00 6.429656e-02 2.893523e-01 -1.001709e+00
124 1 1.350000e-05 1.500000e-06 0.000000e+00 6.429656e-02 2.643012e-01 9.982910e-01
125 1 1.400000e-05 1.500000e-06 0.000000e+00 6.429656e-02 2.422600e-01 -1.001709e+00
126 1 1.450000e-05 1.500000e-06 0.000000e+00 6.429656e-02 2.931280e-01 9.982910e-01
127 1 1.500000e-05 1.500000e-06 0.000000e+00 6.429656e-02 2.365325e-01 -1.001709e+00
128 1 1.550000e-05 1.500000e-06 0.000000e+00 6.429656e-02 3.902223e-01 9.982910e-01
129 1 0.000000e+00 2.000000e-06 0.000000e+00 6.429656e-02 3.344473e-01 9.982910e-01
130 1 5.000000e-07 2.000000e-06 0.000000e+00 6.429656e-02 2.365551e-01 -1.001709e+00
131 1 1.000000e-06 2.000000e-06 0.000000e+00 6.429656e-02 2.700447e-01 -1.001709e+00
132 1 1.500000e-06 2.000000e-06 0.000000e+00 6.429656e-02 2.655842e-01 9.982910e-01
133 1 2.000000e-06 2.000000e-06 0.000000e+00 6.429656e-02 2.092928e-01 -1.001709e+00
134 1 2.500000e-06 2.000000e-06 0.000000e+00 6.429656e-02 2.459288e-01 9.982910e-01
135 1 3.000000e-06 2.000000e-06 0.000000e+00 6.429656e-02 2.801508e-01 -1.001709e+00
136 1 3.500000e-06 2.000000e-06 0.000000e+00 6.429656e-02 2.366748e-01 9.982910e-01
137 1 4.000000e-06 2.000000e-06 0.000000e+00 6.429656e-02 2.689633e-01 -1.001709e+00
138 1 4.500000e-06 2.000000e-06 0.000000e+00 6.429656e-02 2.452077e-01 -1.001709e+00
139 1 5.000000e-06 2.000000e-06 0.000000e+00 6.429656e-02 2.951567e-01 9.982910e-01
140 1 5.500000e-06 2.000000e-06 0.000000e+00 6.429656e-02 2.366030e-01 -1.001709e+00
141 1 6.000000e-06 2.000000e-06 0.000000e+00 6.429656e-02 2.759216e-01 9.982910e-01
142 1 6.500000e-06 2.000000e-06 0.000000e+00 6.429656e-02 2.644315e-01 -1.001709e+00
143 1 7.000000e-06 2.000000e-06 0.000000e+00 6.429656e-02 2.517020e-01 9.982910e-01
144 1 7.500000e-06 2.000000e-06 0.000000e+00 6.429656e-02 2.502275e-01 -1.001709e+00
145 1 8.000000e-06 2.000000e-06 0.000000e+00 6.429656e-02 2.418399e-01 9.982910e-01
146 1 8.500000e-06 2.000000e-06 0.000000e+00 6.429656e-02 2.802432e-01 -1.001709e+00
147 1 9.000000e-06 2.000000e-06 0.000000e+00 6.429656e-02 2.420104e-01 9.982910e-01
148 1 9.500000e-06 2.000000e-06 0.000000e+00 6.429656e-02 1.986588e-01 -1.001709e+00
149 1 1.000000e-05 2.000000e-06 0.000000e+00 6.429656e-02 2.425891e-01 9.982910e-01
150 1 1.050000e-05 2.000000e-06 0.000000e+00 6.429656e-02 2.409730e-01 -1.001709e+00
151 1 1.100000e-05 2.000000e-06 0.000000e+00 6.429656e-02 2.410383e-01 9.982910e-01
152 1 1.150000e-05 2.000000e-06 0.000000e+00 6.429656e-02 2.226294e-01 -1.001709e+00
153 1 1.200000e-05 2.000000e-06 0.000000e+00 6.429656e-02 2.411563e-01 9.982910e-01
154 1 1.250000e-05 2.000000e-06 0.000000e+00 6.429656e-02 2.561130e-01 -1.001709e+00
155 1 1.300000e-05 2.000000e-06 0.000000e+00 6.429656e-02 2.366184e-01 9.982910e-01
156 1 1.350000e-05 2.000000e-06 0.000000e+00 6.429656e-02 2.604984e-01 -1.001709e+00
157 1 1.400000e-05 2.000000e-06 0.000000e+00 6.429656e-02 2.603953e-01 9.982910e-01
158 1 1.450000e-05 2.000000e-06 0.000000e+00 6.429656e-02 2.371164e-01 -1.001709e+00
159 1 1.500000e-05 2.000000e-06 0.000000e+00 6.429656e-02 2.364865e-01 9.982910e-01
160 1 1.550000e-05 2.000000e-06 0.000000e+00 6.429656e-02 3.573216e-01 -1.001709e+00
161 1 0.000000e+00 2.500000e-06 0.000000e+00 6.429656e-02 3.549127e-01 -1.001709e+00
162 1 5.000000e-07 2.500000e-06 0.000000e+00 6.429656e-02 2.710047e-01 -1.001709e+00
163 1 1.000000e-06 2.500000e-06 0.000000e+00 6.429656e-02 2.957538e-01 9.982910e-01
164 1 1.500000e-06 2.500000e-06 0.000000e+00 6.429656e-02 2.979314e-01 -1.001709e+00
165 1 2.000000e-06 2.500000e-06 0.000000e+00 6.429656e-02 2.571028e-01 9.982910e-01
166 1 2.500000e-06 2.500000e-06 0.000000e+00 6.429656e-02 1.992079e-01 -1.001709e+00
167 1 3.000000e-06 2.500000e-06 0.000000e+00 6.429656e-02 2.497986e-01 9.982910e-01
168 1 3.500000e-06 2.500000e-06 0.000000e+00 6.429656e-02 2.411285e-01 -1.001709e+00
169 1 4.000000e-06 2.500000e-06 0.000000e+00 6.429656e-02 2.433707e-01 9.982910e-01
170 1 4.500000e-06 2.500000e-06 0.000000e+00 6.429656e-02 2.398702e-01 9.982910e-01
171 1 5.000000e-06 2.500000e-06 0.000000e+00 6.429656e-02 2.834167e-01 -1.001709e+00
172 1 5.500000e-06 2.500000e-06 0.000000e+00 6.429656e-02 2.412192e-01 9.982910e-01
173 1 6.000000e-06 2.500000e-06 0.000000e+00 6.429656e-02 2.876980e-01 -1.001709e+00
174 1 6.500000e-06 2.500000e-06 0.000000e+00 6.429656e-02 2.992435e-01 9.982910e-01
175 1 7.000000e-06 2.500000e-06 0.000000e+00 6.429656e-02 2.606732e-01 -1.001709e+00
176 1 7.500000e-06 2.500000e-06 0.000000e+00 6.429656e-02 2.647155e-01 9.982910e-01
177 1 8.000000e-06 2.500000e-06 0.000000e+00 6.429656e-02 2.601593e-01 -1.001709e+00
178 1 8.500000e-06 2.500000e-06 0.000000e+00 6.429656e-02 2.730927e-01 9.982910e-01
179 1 9.000000e-06 2.500000e-06 0.000000e+00 6.429656e-02 2.237744e-01 -1.001709e+00
180 1 9.500000e-06 2.500000e-06 0.000000e+00 6.429656e-02 2.394318e-01 9.982910e-01
181 1 1.000000e-05 2.500000e-06 0.000000e+00 6.429656e-02 1.861004e-01 -1.001709e+00
182 1 1.050000e-05 2.500000e-06 0.000000e+00 6.429656e-02 2.561762e-01 9.982910e-01
183 1 1.100000e-05 2.500000e-06 0.000000e+00 6.429656e-02 2.500452e-01 -1.001709e+00
184 1 1.150000e-05 2.500000e-06 0.000000e+00 6.429656e-02 2.410797e-01 9.982910e-01
185 1 1.200000e-05 2.500000e-06 0.000000e+00 6.429656e-02 2.645982e-01 -1.001709e+00
186 1 1.250000e-05 2.500000e-06 0.000000e+00 6.429656e-02 2.646052e-01 9.982910e-01
187 1 1.300000e-05 2.500000e-06 0.000000e+00 6.429656e-02 2.365885e-01 -1.001709e+00
188 1 1.350000e-05 2.500000e-06 0.000000e+00 6.429656e-02 2.823239e-01 9.982910e-01
189 1 1.400000e-05 2.500000e-06 0.000000e+00 6.429656e-02 2.672340e-01 -1.001709e+00
190 1 1.450000e-05 2.500000e-06 0.000000e+00 6.429656e-02 2.411386e-01 9.982910e-01
191 1 1.500000e-05 2.500000e-06 0.000000e+00 6.429656e-02 2.684805e-01 -1.001709e+00
192 1 1.550000e-05 2.500000e-06 0.000000e+00 6.429656e-02 3.362494e-01 9.982910e-01
193 1 0.000000e+00 3.000000e-06 0.000000e+00 6.429656e-02 3.547399e-01 -1.001709e+00
194 1 5.000000e-07 3.000000e-06 0.000000e+00 6.429656e-02 2.412521e-01 9.982910e-01
195 1 1.000000e-06 3.000000e-06 0.000000e+00 6.429656e-02 2.617186e-01 -1.001709e+00
196 1 1.500000e-06 3.000000e-06 0.000000e+00 6.429656e-02 2.712298e-01 9.982910e-01
197 1 2.000000e-06 3.000000e-06 0.000000e+00 6.429656e-02 1.965087e-01 -1.001709e+00
198 1 2.500000e-06 3.000000e-06 0.000000e+00 6.429656e-02 1.967595e-01 9.982910e-01
199 1 3.000000e-06 3.000000e-06 0.000000e+00 6.429656e-02 2.468057e-01 -1.001709e+00
200 1 3.500000e-06 3.000000e-06 0.000000e+00 6.429656e-02 2.604422e-01 9.982910e-01
201 1 4.000000e-06 3.000000e-06 0.000000e+00 6.429656e-02 2.366606e-01 -1.001709e+00
202 1 4.500000e-06 3.000000e-06 0.000000e+00 6.429656e-02 2.434356e-01 9.982910e-01
203 1 5.000000e-06 3.000000e-06 0.000000e+00 6.429656e-02 3.038717e-01 -1.001709e+00
204 1 5.500000e-06 3.000000e-06 0.000000e+00 6.429656e-02 2.687284e-01 9.982910e-01
205 1 6.000000e-06 3.000000e-06 0.000000e+00 6.429656e-02 2.489853e-01 -1.001709e+00
206 1 6.500000e-06 3.000000e-06 0.000000e+00 6.429656e-02 2.684111e-01 9.982910e-01
207 1 7.000000e-06 3.000000e-06 0.000000e+00 6.429656e-02 3.076380e-01 -1.001709e+00
208 1 7.500000e-06 3.000000e-06 0.000000e+00 6.429656e-02 1.733197e-01 9.982910e-01
209 1 8.000000e-06 3.000000e-06 0.000000e+00 6.429656e-02 7.856103e-02 -1.001709e+00
210 1 8.500000e-06 3.000000e-06 0.000000e+00 6.429656e-02 1.182447e-01 9.982910e-01
211 1 9.000000e-06 3.000000e-06 0.000000e+00 6.429656e-02 1.166871e-01 -1.001709e+00
212 1 9.500000e-06 3.000000e-06 0.000000e+00 6.429656e-02 1.602737e-01 9.982910e-01
213 1 1.000000e-05 3.000000e-06 0.000000e+00 6.429656e-02 9.738389e-02 -1.001709e+00
214 1 1.050000e-05 3.000000e-06 0.000000e+00 6.429656e-02 1.508604e-01 9.982910e-01
215 1 1.100000e-05 3.000000e-06 0.000000e+00 6.429656e-02 2.701476e-01 9.982910e-01
216 1 1.150000e-05 3.000000e-06 0.000000e+00 6.429656e-02 3.248485e-01 -1.001709e+00
217 1 1.200000e-05 3.000000e-06 0.000000e+00 6.429656e-02 1.674011e-01 -1.001709e+00
218 1 1.250000e-05 3.000000e-06 0.000000e+00 6.429656e-02 2.027017e-01 9.982910e-01
219 1 1.300000e-05 3.000000e-06 0.000000e+00 6.429656e-02 2.593600e-01 -1.001709e+00
220 1 1.350000e-05 3.000000e-06 0.000000e+00 6.429656e-02 2.492456e-01 9.982910e-01
221 1 1.400000e-05 3.000000e-06 0.000000e+00 6.429656e-02 2.480232e-01 -1.001709e+00
222 1 1.450000e-05 3.000000e-06 0.000000e+00 6.429656e-02 2.794953e-01 9.982910e-01
223 1 1.500000e-05 3.000000e-06 0.000000e+00 6.429656e-02 2.839770e-01 -1.001709e+00
224 1 1.550000e-05 3.000000e-06 0.000000e+00 6.429656e-02 4.066732e-01 9.982910e-01
225 1 0.000000e+00 3.500000e-06 0.000000e+00 6.429656e-02 3.345476e-01 9.982910e-01
226 1 5.000000e-07 3.500000e-06 0.000000e+00 6.429656e-02 2.365696e-01 -1.001709e+00
227 1 1.000000e-06 3.500000e-06 0.000000e+00 6.429656e-02 2.364749e-01 9.982910e-01
228 1 1.500000e-06 3.500000e-06 0.000000e+00 6.429656e-02 2.410052e-01 -1.001709e+00
229 1 2.000000e-06 3.500000e-06 0.000000e+00 6.429656e-02 2.175886e-01 9.982910e-01
230 1 2.500000e-06 3.500000e-06 0.000000e+00 6.429656e-02 2.117209e-01 -1.001709e+00
231 1 3.000000e-06 3.500000e-06 0.000000e+00 6.429656e-02 2.214506e-01 9.982910e-01
232 1 3.500000e-06 3.500000e-06 0.000000e+00 6.429656e-02 2.071283e-01 -1.001709e+00
233 1 4.000000e-06 3.500000e-06 0.000000e+00 6.429656e-02 1.967896e-01 9.982910e-01
234 1 4.500000e-06 3.500000e-06 0.000000e+00 6.429656e-02 1.184974e-01 -1.001709e+00
235 1 5.000000e-06 3.500000e-06 0.000000e+00 6.429656e-02 1.969483e-01 9.982910e-01
236 1 5.500000e-06 3.500000e-06 0.000000e+00 6.429656e-02 3.036582e-01 -1.001709e+00
237 1 6.000000e-06 3.500000e-06 0.000000e+00 6.429656e-02 2.410801e-01 9.982910e-01
238 1 6.500000e-06 3.500000e-06 0.000000e+00 6.429656e-02 2.413176e-01 -1.001709e+00
239 1 7.000000e-06 3.500000e-06 0.000000e+00 6.429656e-02 2.410530e-01 9.982910e-01
240 1 7.500000e-06 3.500000e-06 0.000000e+00 6.429656e-02 1.860165e-01 -1.001709e+00
241 1 8.000000e-06 3.500000e-06 0.000000e+00 6.429656e-02 2.462566e-01 9.982910e-01
242 1 8.500000e-06 3.500000e-06 0.000000e+00 6.429656e-02 1.771342e-01 -1.001709e+00
243 1 9.000000e-06 3.500000e-06 0.000000e+00 6.429656e-02 2.754414e-01 9.982910e-01
244 1 9.500000e-06 3.500000e-06 0.000000e+00 6.429656e-02 1.950304e-01 -1.001709e+00
245 1 1.000000e-05 3.500000e-06 0.000000e+00 6.429656e-02 1.756648e-01 9.982910e-01
246 1 1.050000e-05 3.500000e-06 0.000000e+00 6.429656e-02 1.101188e-01 -1.001709e+00
247 1 1.100000e-05 3.500000e-06 0.000000e+00 6.429656e-02 2.096620e-01 9.982910e-01
248 1 1.150000e-05 3.500000e-06 0.000000e+00 6.429656e-02 3.038791e-01 -1.001709e+00
249 1 1.200000e-05 3.500000e-06 0.000000e+00 6.429656e-02 2.365152e-01 9.982910e-01
250 1 1.250000e-05 3.500000e-06 0.000000e+00 6.429656e-02 2.561198e-01 -1.001709e+00
251 1 1.300000e-05 3.500000e-06 0.000000e+00 6.429656e-02 2.545285e-01 9.982910e-01
252 1 1.350000e-05 3.500000e-06 0.000000e+00 6.429656e-02 2.287354e-01 -1.001709e+00
253 1 1.400000e-05 3.500000e-06 0.000000e+00 6.429656e-02 1.882062e-01 9.982910e-01
254 1 1.450000e-05 3.500000e-06 0.000000e+00 6.429656e-02 1.945347e-01 -1.001709e+00
255 1 1.500000e-05 3.500000e-06 0.000000e+00 6.429656e-02 1.834552e-01 9.982910e-01
256 1 1.550000e-05 3.500000e-06 0.000000e+00 6.429656e-02 3.303333e-01 -1.001709e+00
257 1 0.000000e+00 4.000000e-06 0.000000e+00 6.429656e-02 3.413426e-01 -1.001709e+00
258 1 5.000000e-07 4.000000e-06 0.000000e+00 6.429656e-02 2.412080e-01 9.982910e-01
259 1 1.000000e-06 4.000000e-06 0.000000e+00 6.429656e-02 2.411111e-01 -1.001709e+00
260 1 1.500000e-06 4.000000e-06 0.000000e+00 6.429656e-02 2.501741e-01 9.982910e-01
261 1 2.000000e-06 4.000000e-06 0.000000e+00 6.429656e-02 2.381685e-01 -1.001709e+00
262 1 2.500000e-06 4.000000e-06 0.000000e+00 6.429656e-02 2.461739e-01 9.982910e-01
263 1 3.000000e-06 4.000000e-06 0.000000e+00 6.429656e-02 2.802479e-01 -1.001709e+00
264 1 3.500000e-06 4.000000e-06 0.000000e+00 6.429656e-02 2.488429e-01 -1.001709e+00
265 1 4.000000e-06 4.000000e-06 0.000000e+00 6.429656e-02 2.685467e-01 9.982910e-01
266 1 4.500000e-06 4.000000e-06 0.000000e+00 6.429656e-02 3.038332e-01 -1.001709e+00
267 1 5.000000e-06 4.000000e-06 0.000000e+00 6.429656e-02 2.646007e-01 9.982910e-01
268 1 5.500000e-06 4.000000e-06 0.000000e+00 6.429656e-02 2.702026e-01 9.982910e-01
269 1 6.000000e-06 4.000000e-06 0.000000e+00 6.429656e-02 3.124824e-01 -1.001709e+00
270 1 6.500000e-06 4.000000e-06 0.000000e+00 6.429656e-02 2.366136e-01 9.982910e-01
271 1 7.000000e-06 4.000000e-06 0.000000e+00 6.429656e-02 2.851422e-01 -1.001709e+00
272 1 7.500000e-06 4.000000e-06 0.000000e+00 6.429656e-02 2.953582e-01 9.982910e-01
273 1 8.000000e-06 4.000000e-06 0.000000e+00 6.429656e-02 2.807841e-01 -1.001709e+00
274 1 8.500000e-06 4.000000e-06 0.000000e+00 6.429656e-02 2.450942e-01 9.982910e-01
275 1 9.000000e-06 4.000000e-06 0.000000e+00 6.429656e-02 2.604408e-01 -1.001709e+00
276 1 9.500000e-06 4.000000e-06 0.000000e+00 6.429656e-02 2.367440e-01 9.982910e-01
277 1 1.000000e-05 4.000000e-06 0.000000e+00 6.429656e-02 2.366700e-01 -1.001709e+00
278 1 1.050000e-05 4.000000e-06 0.000000e+00 6.429656e-02 2.306521e-01 9.982910e-01
279 1 1.100000e-05 4.000000e-06 0.000000e+00 6.429656e-02 2.225767e-01 -1.001709e+00
280 1 1.150000e-05 4.000000e-06 0.000000e+00 6.429656e-02 2.450336e-01 9.982910e-01
281 1 1.200000e-05 4.000000e-06 0.000000e+00 6.429656e-02 2.805891e-01 -1.001709e+00
282 1 1.250000e-05 4.000000e-06 0.000000e+00 6.429656e-02 2.757810e-01 9.982910e-01
283 1 1.300000e-05 4.000000e-06 0.000000e+00 6.429656e-02 2.655560e-01 -1.001709e+00
284 1 1.350000e-05 4.000000e-06 0.000000e+00 6.429656e-02 2.421989e-01 9.982910e-01
285 1 1.400000e-05 4.000000e-06 0.000000e+00 6.429656e-02 2.576682e-01 -1.001709e+00
286 1 1.450000e-05 4.000000e-06 0.000000e+00 6.429656e-02 2.516381e-01 9.982910e-01
287 1 1.500000e-05 4.000000e-06 0.000000e+00 6.429656e-02 2.467371e-01 -1.001709e+00
288 1 1.550000e-05 4.000000e-06 0.000000e+00 6.429656e-02 3.487592e-01 9.982910e-01
289 1 0.000000e+00 4.500000e-06 0.000000e+00 6.429656e-02 3.169865e-01 9.982910e-01
290 1 5.000000e-07 4.500000e-06 0.000000e+00 6.429656e-02 2.415472e-01 -1.001709e+00
291 1 1.000000e-06 4.500000e-06 0.000000e+00 6.429656e-02 2.414444e-01 9.982910e-01
292 1 1.500000e-06 4.500000e-06 0.000000e+00 6.429656e-02 2.415295e-01 -1.001709e+00
293 1 2.000000e-06 4.500000e-06 0.000000e+00 6.429656e-02 2.524588e-01 9.982910e-01
294 1 2.500000e-06 4.500000e-06 0.000000e+00 6.429656e-02 2.278660e-01 -1.001709e+00
295 1 3.000000e-06 4.500000e-06 0.000000e+00 6.429656e-02 3.051612e-01 9.982910e-01
296 1 3.500000e-06 4.500000e-06 0.000000e+00 6.429656e-02 2.411140e-01 9.982910e-01
297 1 4.000000e-06 4.500000e-06 0.000000e+00 6.429656e-02 2.559999e-01 -1.001709e+00
298 1 4.500000e-06 4.500000e-06 0.000000e+00 6.429656e-02 2.366968e-01 9.982910e-01
299 1 5.000000e-06 4.500000e-06 0.000000e+00 6.429656e-02 2.758211e-01 -1.001709e+00
300 1 5.500000e-06 4.500000e-06 0.000000e+00 6.429656e-02 2.550979e-01 9.982910e-01
301 1 6.000000e-06 4.500000e-06 0.000000e+00 6.429656e-02 2.228908e-01 9.982910e-01
302 1 6.500000e-06 4.500000e-06 0.000000e+00 6.429656e-02 2.460701e-01 -1.001709e+00
303 1 7.000000e-06 4.500000e-06 0.000000e+00 6.429656e-02 2.409705e-01 9.982910e-01
304 1 7.500000e-06 4.500000e-06 0.000000e+00 6.429656e-02 2.545605e-01 -1.001709e+00
305 1 8.000000e-06 4.500000e-06 0.000000e+00 6.429656e-02 2.750610e-01 9.982910e-01
306 1 8.500000e-06 4.500000e-06 0.000000e+00 6.429656e-02 2.697604e-01 -1.001709e+00
307 1 9.000000e-06 4.500000e-06 0.000000e+00 6.429656e-02 2.364670e-01 9.982910e-01
308 1 9.500000e-06 4.500000e-06 0.000000e+00 6.429656e-02 2.561086e-01 -1.001709e+00
309 1 1.000000e-05 4.500000e-06 0.000000e+00 6.429656e-02 2.226839e-01 9.982910e-01
310 1 1.050000e-05 4.500000e-06 0.000000e+00 6.429656e-02 2.545843e-01 -1.001709e+00
311 1 1.100000e-05 4.500000e-06 0.000000e+00 6.429656e-02 2.188197e-01 9.982910e-01
312 1 1.150000e-05 4.500000e-06 0.000000e+00 6.429656e-02 2.304323e-01 -1.001709e+00
313 1 1.200000e-05 4.500000e-06 0.000000e+00 6.429656e-02 2.411808e-01 9.982910e-01
314 1 1.250000e-05 4.500000e-06 0.000000e+00 6.429656e-02 2.696737e-01 -1.001709e+00
315 1 1.300000e-05 4.500000e-06 0.000000e+00 6.429656e-02 2.576606e-01 9.982910e-01
316 1 1.350000e-05 4.500000e-06 0.000000e+00 6.429656e-02 2.306999e-01 -1.001709e+00
317 1 1.400000e-05 4.500000e-06 0.000000e+00 6.429656e-02 1.939254e-01 9.982910e-01
318 1 1.450000e-05 4.500000e-06 0.000000e+00 6.429656e-02 2.255268e-01 -1.001709e+00
319 1 1.500000e-05 4.500000e-06 0.000000e+00 6.429656e-02 2.726390e-01 9.982910e-01
320 1 1.550000e-05 4.500000e-06 0.000000e+00 6.429656e-02 3.722720e-01 -1.001709e+00
321 1 0.000000e+00 5.000000e-06 0.000000e+00 6.429656e-02 3.413868e-01 -1.001709e+00
322 1 5.000000e-07 5.000000e-06 0.000000e+00 6.429656e-02 2.410060e-01 9.982910e-01
323 1 1.000000e-06 5.000000e-06 0.000000e+00 6.429656e-02 2.410910e-01 -1.001709e+00
324 1 1.500000e-06 5.000000e-06 0.000000e+00 6.429656e-02 2.307033e-01 9.982910e-01
325 1 2.000000e-06 5.000000e-06 0.000000e+00 6.429656e-02 2.327598e-01 -1.001709e+00
326 1 2.500000e-06 5.000000e-06 0.000000e+00 6.429656e-02 2.368618e-01 9.982910e-01
327 1 3.000000e-06 5.000000e-06 0.000000e+00 6.429656e-02 2.544754e-01 -1.001709e+00
328 1 3.500000e-06 5.000000e-06 0.000000e+00 6.429656e-02 2.689772e-01 -1.001709e+00
329 1 4.000000e-06 5.000000e-06 0.000000e+00 6.429656e-02 2.753329e-01 9.982910e-01
330 1 4.500000e-06 5.000000e-06 0.000000e+00 6.429656e-02 2.560586e-01 -1.001709e+00
331 1 5.000000e-06 5.000000e-06 0.000000e+00 6.429656e-02 2.366905e-01 9.982910e-01
332 1 5.500000e-06 5.000000e-06 0.000000e+00 6.429656e-02 2.794613e-01 -1.001709e+00
333 1 6.000000e-06 5.000000e-06 0.000000e+00 6.429656e-02 2.410997e-01 -1.001709e+00
334 1 6.500000e-06 5.000000e-06 0.000000e+00 6.429656e-02 2.410751e-01 9.982910e-01
335 1 7.000000e-06 5.000000e-06 0.000000e+00 6.429656e-02 2.367210e-01 -1.001709e+00
336 1 7.500000e-06 5.000000e-06 0.000000e+00 6.429656e-02 2.412484e-01 9.982910e-01
337 1 8.000000e-06 5.000000e-06 0.000000e+00 6.429656e-02 2.656425e-01 -1.001709e+00
338 1 8.500000e-06 5.000000e-06 0.000000e+00 6.429656e-02 2.759771e-01 9.982910e-01
339 1 9.000000e-06 5.000000e-06 0.000000e+00 6.429656e-02 2.366573e-01 -1.001709e+00
340 1 9.500000e-06 5.000000e-06 0.000000e+00 6.429656e-02 2.756669e-01 9.982910e-01
341 1 1.000000e-05 5.000000e-06 0.000000e+00 6.429656e-02 2.653248e-01 -1.001709e+00
342 1 1.050000e-05 5.000000e-06 0.000000e+00 6.429656e-02 2.701194e-01 9.982910e-01
343 1 1.100000e-05 5.000000e-06 0.000000e+00 6.429656e-02 2.806448e-01 -1.001709e+00
344 1 1.150000e-05 5.000000e-06 0.000000e+00 6.429656e-02 2.420995e-01 9.982910e-01
345 1 1.200000e-05 5.000000e-06 0.000000e+00 6.429656e-02 2.366282e-01 -1.001709e+00
346 1 1.250000e-05 5.000000e-06 0.000000e+00 6.429656e-02 2.654767e-01 9.982910e-01
347 1 1.300000e-05 5.000000e-06 0.000000e+00 6.429656e-02 2.906060e-01 -1.001709e+00
348 1 1.350000e-05 5.000000e-06 0.000000e+00 6.429656e-02 1.767549e-01 9.982910e-01
349 1 1.400000e-05 5.000000e-06 0.000000e+00 6.429656e-02 1.553103e-01 -1.001709e+00
350 1 1.450000e-05 5.000000e-06 0.000000e+00 6.429656e-02 1.998962e-01 9.982910e-01
351 1 1.500000e-05 5.000000e-06 0.000000e+00 6.429656e-02 2.138610e-01 -1.001709e+00
352 1 1.550000e-05 5.000000e-06 0.000000e+00 6.429656e-02 3.064307e-01 9.982910e-01
353 1 0.000000e+00 5.500000e-06 0.000000e+00 6.429656e-02 3.016124e-01 9.982910e-01
354 1 5.000000e-07 5.500000e-06 0.000000e+00 6.429656e-02 1.987731e-01 -1.001709e+00