ITEM: TIMESTEP
1
ITEM: NUMBER OF ATOMS
16384
ITEM: BOX BOUNDS pp pp pp
0.0 1.600000e-05
0.0 1.600000e-05
0.0 8.000000e-06
ITEM: ATOMS id type x y z crack plastic psi
1 1 0.000000e+00 0.000000e+00 0.000000e+00 9.441194e-05 1.175560e-01 9.957275e-01
2 1 5.000000e-07 0.000000e+00 0.000000e+00 9.441206e-05 1.663104e-01 9.957275e-01
3 1 1.000000e-06 0.000000e+00 0.000000e+00 9.433884e-05 1.115184e-01 -1.004272e+00
4 1 1.500000e-06 0.000000e+00 0.000000e+00 8.668519e-05 5.833129e-02 9.957275e-01
5 1 2.000000e-06 0.000000e+00 0.000000e+00 8.667209e-05 5.799583e-02 -1.004272e+00
6 1 2.500000e-06 0.000000e+00 0.000000e+00 8.667335e-05 5.802951e-02 9.957275e-01
7 1 3.000000e-06 0.000000e+00 0.000000e+00 8.668465e-05 8.223006e-02 -1.004272e+00
8 1 3.500000e-06 0.000000e+00 0.000000e+00 8.667844e-05 8.207433e-02 9.957275e-01
9 1 4.000000e-06 0.000000e+00 0.000000e+00 8.667305e-05 8.193326e-02 -1.004272e+00
10 1 4.500000e-06 0.000000e+00 0.000000e+00 8.668585e-05 5.834731e-02 9.957275e-01
11 1 5.000000e-06 0.000000e+00 0.000000e+00 9.441203e-05 1.244604e-01 -1.004272e+00
12 1 5.500000e-06 0.000000e+00 0.000000e+00 9.441194e-05 1.183371e-01 -1.004272e+00
13 1 6.000000e-06 0.000000e+00 0.000000e+00 8.667708e-05 6.493972e-02 -1.004272e+00
14 1 6.500000e-06 0.000000e+00 0.000000e+00 8.667297e-05 8.193119e-02 9.957275e-01
15 1 7.000000e-06 0.000000e+00 0.000000e+00 9.441206e-05 1.669739e-01 -1.004272e+00
16 1 7.500000e-06 0.000000e+00 0.000000e+00 8.667219e-05 8.191018e-02 9.957275e-01
17 1 8.000000e-06 0.000000e+00 0.000000e+00 8.667638e-05 8.697392e-02 -1.004272e+00
18 1 8.500000e-06 0.000000e+00 0.000000e+00 8.667246e-05 8.687056e-02 -1.004272e+00
19 1 9.000000e-06 0.000000e+00 0.000000e+00 8.669693e-05 6.541965e-02 9.957275e-01
20 1 9.500000e-06 0.000000e+00 0.000000e+00 8.669107e-05 6.528470e-02 9.957275e-01
21 1 1.000000e-05 0.000000e+00 0.000000e+00 9.441205e-05 1.465159e-01 -1.004272e+00
22 1 1.050000e-05 0.000000e+00 0.000000e+00 9.434085e-05 9.451445e-02 -1.004272e+00
23 1 1.100000e-05 0.000000e+00 0.000000e+00 9.441206e-05 1.763027e-01 9.957275e-01
24 1 1.150000e-05 0.000000e+00 0.000000e+00 9.441206e-05 1.766025e-01 9.957275e-01
25 1 1.200000e-05 0.000000e+00 0.000000e+00 9.433820e-05 1.164419e-01 -1.004272e+00
26 1 1.250000e-05 0.000000e+00 0.000000e+00 9.433842e-05 9.440012e-02 -1.004272e+00
27 1 1.300000e-05 0.000000e+00 0.000000e+00 9.441194e-05 1.173787e-01 9.957275e-01
28 1 1.350000e-05 0.000000e+00 0.000000e+00 9.433730e-05 8.753798e-02 -1.004272e+00
29 1 1.400000e-05 0.000000e+00 0.000000e+00 8.667293e-05 6.483078e-02 9.957275e-01
30 1 1.450000e-05 0.000000e+00 0.000000e+00 8.666637e-05 5.783847e-02 -1.004272e+00
31 1 1.500000e-05 0.000000e+00 0.000000e+00 8.667569e-05 8.695594e-02 9.957275e-01
32 1 1.550000e-05 0.000000e+00 0.000000e+00 8.668276e-05 1.005339e-01 -1.004272e+00
33 1 0.000000e+00 5.000000e-07 0.000000e+00 9.441203e-05 1.241461e-01 -1.004272e+00
34 1 5.000000e-07 5.000000e-07 0.000000e+00 9.411380e-05 5.883478e-02 -1.004272e+00
35 1 1.000000e-06 5.000000e-07 0.000000e+00 7.893031e-05 4.537284e-04 9.957275e-01
36 1 1.500000e-06 5.000000e-07 0.000000e+00 8.643842e-05 2.894508e-02 -1.004272e+00
37 1 2.000000e-06 5.000000e-07 0.000000e+00 8.666446e-05 6.459673e-02 9.957275e-01
38 1 2.500000e-06 5.000000e-07 0.000000e+00 8.666478e-05 6.460566e-02 9.957275e-01
39 1 3.000000e-06 5.000000e-07 0.000000e+00 8.644592e-05 2.915134e-02 9.957275e-01
40 1 3.500000e-06 5.000000e-07 0.000000e+00 7.892487e-05 3.126260e-04 -1.004272e+00
41 1 4.000000e-06 5.000000e-07 0.000000e+00 8.644519e-05 2.913160e-02 9.957275e-01
42 1 4.500000e-06 5.000000e-07 0.000000e+00 9.411527e-05 5.890610e-02 -1.004272e+00
43 1 5.000000e-06 5.000000e-07 0.000000e+00 8.644815e-05 2.921033e-02 9.957275e-01
44 1 5.500000e-06 5.000000e-07 0.000000e+00 8.659130e-05 2.994745e-02 -1.004272e+00
45 1 6.000000e-06 5.000000e-07 0.000000e+00 8.644485e-05 2.912263e-02 9.957275e-01
46 1 6.500000e-06 5.000000e-07 0.000000e+00 9.433989e-05 8.765819e-02 -1.004272e+00
47 1 7.000000e-06 5.000000e-07 0.000000e+00 9.441194e-05 1.175172e-01 9.957275e-01
48 1 7.500000e-06 5.000000e-07 0.000000e+00 9.434243e-05 8.778009e-02 -1.004272e+00
49 1 8.000000e-06 5.000000e-07 0.000000e+00 8.645215e-05 2.931382e-02 9.957275e-01
50 1 8.500000e-06 5.000000e-07 0.000000e+00 8.669478e-05 6.537057e-02 9.957275e-01
51 1 9.000000e-06 5.000000e-07 0.000000e+00 7.894808e-05 8.788614e-04 -1.004272e+00
52 1 9.500000e-06 5.000000e-07 0.000000e+00 8.668697e-05 6.518720e-02 9.957275e-01
53 1 1.000000e-05 5.000000e-07 0.000000e+00 8.668135e-05 5.823627e-02 9.957275e-01
54 1 1.050000e-05 5.000000e-07 0.000000e+00 8.666728e-05 7.083673e-02 9.957275e-01
55 1 1.100000e-05 5.000000e-07 0.000000e+00 9.434037e-05 9.449152e-02 -1.004272e+00
56 1 1.150000e-05 5.000000e-07 0.000000e+00 9.411274e-05 5.878462e-02 -1.004272e+00
57 1 1.200000e-05 5.000000e-07 0.000000e+00 7.892502e-05 3.165334e-04 9.957275e-01
58 1 1.250000e-05 5.000000e-07 0.000000e+00 9.418298e-05 7.100627e-02 -1.004272e+00
59 1 1.300000e-05 5.000000e-07 0.000000e+00 9.418493e-05 9.592638e-02 -1.004272e+00
60 1 1.350000e-05 5.000000e-07 0.000000e+00 9.411063e-05 5.868626e-02 9.957275e-01
61 1 1.400000e-05 5.000000e-07 0.000000e+00 8.644793e-05 2.920444e-02 -1.004272e+00
62 1 1.450000e-05 5.000000e-07 0.000000e+00 9.411369e-05 5.882986e-02 9.957275e-01
63 1 1.500000e-05 5.000000e-07 0.000000e+00 9.441203e-05 1.243590e-01 -1.004272e+00
64 1 1.550000e-05 5.000000e-07 0.000000e+00 8.668674e-05 8.228099e-02 9.957275e-01
65 1 0.000000e+00 1.000000e-06 0.000000e+00 8.666572e-05 5.782015e-02 9.957275e-01
66 1 5.000000e-07 1.000000e-06 0.000000e+00 8.665587e-05 4.090094e-02 -1.004272e+00
67 1 1.000000e-06 1.000000e-06 0.000000e+00 7.891824e-05 1.325834e-04 -1.004272e+00
68 1 1.500000e-06 1.000000e-06 0.000000e+00 7.893076e-05 4.652965e-04 9.957275e-01
69 1 2.000000e-06 1.000000e-06 0.000000e+00 9.411547e-05 5.891587e-02 -1.004272e+00
70 1 2.500000e-06 1.000000e-06 0.000000e+00 8.644200e-05 2.904499e-02 9.957275e-01
71 1 3.000000e-06 1.000000e-06 0.000000e+00 7.891629e-05 7.769188e-05 -1.004272e+00
72 1 3.500000e-06 1.000000e-06 0.000000e+00 8.645078e-05 2.927864e-02 9.957275e-01
73 1 4.000000e-06 1.000000e-06 0.000000e+00 8.667208e-05 6.480785e-02 9.957275e-01
74 1 4.500000e-06 1.000000e-06 0.000000e+00 9.441194e-05 1.171713e-01 -1.004272e+00
75 1 5.000000e-06 1.000000e-06 0.000000e+00 9.433888e-05 9.442140e-02 9.957275e-01
76 1 5.500000e-06 1.000000e-06 0.000000e+00 8.667202e-05 6.480620e-02 -1.004272e+00
77 1 6.000000e-06 1.000000e-06 0.000000e+00 8.667113e-05 7.094285e-02 9.957275e-01
78 1 6.500000e-06 1.000000e-06 0.000000e+00 8.665940e-05 4.099945e-02 9.957275e-01
79 1 7.000000e-06 1.000000e-06 0.000000e+00 8.659458e-05 3.010704e-02 -1.004272e+00
80 1 7.500000e-06 1.000000e-06 0.000000e+00 7.893026e-05 4.525332e-04 9.957275e-01
81 1 8.000000e-06 1.000000e-06 0.000000e+00 8.659042e-05 2.990571e-02 -1.004272e+00
82 1 8.500000e-06 1.000000e-06 0.000000e+00 8.666689e-05 4.120004e-02 -1.004272e+00
83 1 9.000000e-06 1.000000e-06 0.000000e+00 8.667703e-05 6.493865e-02 9.957275e-01
84 1 9.500000e-06 1.000000e-06 0.000000e+00 9.441204e-05 1.297512e-01 -1.004272e+00
85 1 1.000000e-05 1.000000e-06 0.000000e+00 8.644775e-05 2.919971e-02 -1.004272e+00
86 1 1.050000e-05 1.000000e-06 0.000000e+00 8.668055e-05 4.153853e-02 -1.004272e+00
87 1 1.100000e-05 1.000000e-06 0.000000e+00 8.666700e-05 5.785619e-02 9.957275e-01
88 1 1.150000e-05 1.000000e-06 0.000000e+00 8.666750e-05 6.468236e-02 9.957275e-01
89 1 1.200000e-05 1.000000e-06 0.000000e+00 9.433715e-05 9.434153e-02 -1.004272e+00
90 1 1.250000e-05 1.000000e-06 0.000000e+00 9.441204e-05 1.312233e-01 9.957275e-01
91 1 1.300000e-05 1.000000e-06 0.000000e+00 9.418293e-05 7.092841e-02 -1.004272e+00
92 1 1.350000e-05 1.000000e-06 0.000000e+00 8.645210e-05 2.931246e-02 -1.004272e+00
93 1 1.400000e-05 1.000000e-06 0.000000e+00 8.666087e-05 4.208684e-02 9.957275e-01
94 1 1.450000e-05 1.000000e-06 0.000000e+00 9.440243e-05 1.078487e-01 -1.004272e+00
95 1 1.500000e-05 1.000000e-06 0.000000e+00 9.434026e-05 9.448617e-02 9.957275e-01
96 1 1.550000e-05 1.000000e-06 0.000000e+00 9.441206e-05 1.484852e-01 -1.004272e+00
97 1 0.000000e+00 1.500000e-06 0.000000e+00 8.667099e-05 8.187803e-02 -1.004272e+00
98 1 5.000000e-07 1.500000e-06 0.000000e+00 8.666994e-05 7.091040e-02 9.957275e-01
99 1 1.000000e-06 1.500000e-06 0.000000e+00 8.666316e-05 4.110154e-02 9.957275e-01
100 1 1.500000e-06 1.500000e-06 0.000000e+00 9.434245e-05 9.459171e-02 -1.004272e+00
101 1 2.000000e-06 1.500000e-06 0.000000e+00 9.441194e-05 1.179307e-01 9.957275e-01
102 1 2.500000e-06 1.500000e-06 0.000000e+00 9.434124e-05 8.772253e-02 -1.004272e+00
103 1 3.000000e-06 1.500000e-06 0.000000e+00 8.666989e-05 5.793616e-02 9.957275e-01
104 1 3.500000e-06 1.500000e-06 0.000000e+00 8.666810e-05 5.788686e-02 -1.004272e+00
105 1 4.000000e-06 1.500000e-06 0.000000e+00 8.668793e-05 6.521026e-02 9.957275e-01
106 1 4.500000e-06 1.500000e-06 0.000000e+00 9.432849e-05 7.066017e-02 -1.004272e+00
107 1 5.000000e-06 1.500000e-06 0.000000e+00 9.433775e-05 9.436924e-02 -1.004272e+00
108 1 5.500000e-06 1.500000e-06 0.000000e+00 8.668302e-05 5.827795e-02 9.957275e-01
109 1 6.000000e-06 1.500000e-06 0.000000e+00 8.659464e-05 3.011046e-02 -1.004272e+00
110 1 6.500000e-06 1.500000e-06 0.000000e+00 8.666047e-05 4.102885e-02 9.957275e-01
111 1 7.000000e-06 1.500000e-06 0.000000e+00 8.667557e-05 7.106114e-02 9.957275e-01
112 1 7.500000e-06 1.500000e-06 0.000000e+00 9.434104e-05 9.452337e-02 -1.004272e+00
113 1 8.000000e-06 1.500000e-06 0.000000e+00 9.441194e-05 1.175606e-01 9.957275e-01
114 1 8.500000e-06 1.500000e-06 0.000000e+00 9.410532e-05 5.845097e-02 9.957275e-01
115 1 9.000000e-06 1.500000e-06 0.000000e+00 8.647003e-05 2.974207e-02 -1.004272e+00
116 1 9.500000e-06 1.500000e-06 0.000000e+00 9.410683e-05 5.851644e-02 -1.004272e+00
117 1 1.000000e-05 1.500000e-06 0.000000e+00 7.891778e-05 1.195067e-04 9.957275e-01
118 1 1.050000e-05 1.500000e-06 0.000000e+00 8.667097e-05 7.093845e-02 -1.004272e+00
119 1 1.100000e-05 1.500000e-06 0.000000e+00 8.666867e-05 5.790265e-02 -1.004272e+00
120 1 1.150000e-05 1.500000e-06 0.000000e+00 7.892115e-05 2.127929e-04 -1.004272e+00
121 1 1.200000e-05 1.500000e-06 0.000000e+00 9.434142e-05 1.007020e-01 -1.004272e+00
122 1 1.250000e-05 1.500000e-06 0.000000e+00 9.441204e-05 1.312058e-01 9.957275e-01
123 1 1.300000e-05 1.500000e-06 0.000000e+00 9.441204e-05 1.308240e-01 -1.004272e+00
124 1 1.350000e-05 1.500000e-06 0.000000e+00 9.433055e-05 1.002140e-01 9.957275e-01
125 1 1.400000e-05 1.500000e-06 0.000000e+00 8.666285e-05 6.661975e-02 -1.004272e+00
126 1 1.450000e-05 1.500000e-06 0.000000e+00 9.441205e-05 1.441506e-01 9.957275e-01
127 1 1.500000e-05 1.500000e-06 0.000000e+00 8.666822e-05 5.789021e-02 -1.004272e+00
128 1 1.550000e-05 1.500000e-06 0.000000e+00 9.441206e-05 1.667873e-01 9.957275e-01
129 1 0.000000e+00 2.000000e-06 0.000000e+00 8.666734e-05 8.177737e-02 9.957275e-01
130 1 5.000000e-07 2.000000e-06 0.000000e+00 8.666947e-05 5.792469e-02 -1.004272e+00
131 1 1.000000e-06 2.000000e-06 0.000000e+00 8.667168e-05 6.479710e-02 9.957275e-01
132 1 1.500000e-06 2.000000e-06 0.000000e+00 9.434629e-05 1.009449e-01 -1.004272e+00
133 1 2.000000e-06 2.000000e-06 0.000000e+00 9.433147e-05 7.080059e-02 -1.004272e+00
134 1 2.500000e-06 2.000000e-06 0.000000e+00 8.666598e-05 6.463966e-02 9.957275e-01
135 1 3.000000e-06 2.000000e-06 0.000000e+00 9.441203e-05 1.243714e-01 -1.004272e+00
136 1 3.500000e-06 2.000000e-06 0.000000e+00 8.667629e-05 5.810707e-02 9.957275e-01
137 1 4.000000e-06 2.000000e-06 0.000000e+00 9.433833e-05 8.758510e-02 -1.004272e+00
138 1 4.500000e-06 2.000000e-06 0.000000e+00 9.418493e-05 9.587843e-02 9.957275e-01
139 1 5.000000e-06 2.000000e-06 0.000000e+00 9.441204e-05 1.312576e-01 9.957275e-01
140 1 5.500000e-06 2.000000e-06 0.000000e+00 8.667216e-05 5.799763e-02 -1.004272e+00
141 1 6.000000e-06 2.000000e-06 0.000000e+00 9.441194e-05 1.179253e-01 9.957275e-01
142 1 6.500000e-06 2.000000e-06 0.000000e+00 9.441029e-05 1.004127e-01 -1.004272e+00
143 1 7.000000e-06 2.000000e-06 0.000000e+00 8.668044e-05 6.502580e-02 9.957275e-01
144 1 7.500000e-06 2.000000e-06 0.000000e+00 8.668065e-05 7.119168e-02 -1.004272e+00
145 1 8.000000e-06 2.000000e-06 0.000000e+00 9.410430e-05 5.840766e-02 9.957275e-01
146 1 8.500000e-06 2.000000e-06 0.000000e+00 9.441203e-05 1.245122e-01 -1.004272e+00
147 1 9.000000e-06 2.000000e-06 0.000000e+00 9.411022e-05 5.866747e-02 9.957275e-01
148 1 9.500000e-06 2.000000e-06 0.000000e+00 7.891940e-05 1.647208e-04 -1.004272e+00
149 1 1.000000e-05 2.000000e-06 0.000000e+00 9.411110e-05 5.870824e-02 9.957275e-01
150 1 1.050000e-05 2.000000e-06 0.000000e+00 8.666663e-05 6.465819e-02 -1.004272e+00
151 1 1.100000e-05 2.000000e-06 0.000000e+00 8.667023e-05 6.475776e-02 9.957275e-01
152 1 1.150000e-05 2.000000e-06 0.000000e+00 8.644504e-05 2.912770e-02 -1.004272e+00
153 1 1.200000e-05 2.000000e-06 0.000000e+00 8.667699e-05 6.493763e-02 9.957275e-01
154 1 1.250000e-05 2.000000e-06 0.000000e+00 9.434148e-05 8.773399e-02 -1.004272e+00
155 1 1.300000e-05 2.000000e-06 0.000000e+00 8.667303e-05 5.802110e-02 9.957275e-01
156 1 1.350000e-05 2.000000e-06 0.000000e+00 9.433881e-05 9.441792e-02 -1.004272e+00
157 1 1.400000e-05 2.000000e-06 0.000000e+00 9.433535e-05 9.426091e-02 9.957275e-01
158 1 1.450000e-05 2.000000e-06 0.000000e+00 9.411265e-05 5.878011e-02 -1.004272e+00
159 1 1.500000e-05 2.000000e-06 0.000000e+00 8.666571e-05 5.782007e-02 9.957275e-01
160 1 1.550000e-05 2.000000e-06 0.000000e+00 9.434241e-05 1.166414e-01 -1.004272e+00
161 1 0.000000e+00 2.500000e-06 0.000000e+00 8.667773e-05 8.700891e-02 -1.004272e+00
162 1 5.000000e-07 2.500000e-06 0.000000e+00 8.669264e-05 6.532121e-02 9.957275e-01
163 1 1.000000e-06 2.500000e-06 0.000000e+00 9.434245e-05 9.459155e-02 -1.004272e+00
164 1 1.500000e-06 2.500000e-06 0.000000e+00 9.441194e-05 1.185326e-01 9.957275e-01
165 1 2.000000e-06 2.500000e-06 0.000000e+00 9.441195e-05 1.248814e-01 -1.004272e+00
166 1 2.500000e-06 2.500000e-06 0.000000e+00 8.666841e-05 6.470758e-02 9.957275e-01
167 1 3.000000e-06 2.500000e-06 0.000000e+00 9.432578e-05 7.053792e-02 9.957275e-01
168 1 3.500000e-06 2.500000e-06 0.000000e+00 8.667537e-05 6.489519e-02 -1.004272e+00
169 1 4.000000e-06 2.500000e-06 0.000000e+00 8.666952e-05 5.792596e-02 9.957275e-01
170 1 4.500000e-06 2.500000e-06 0.000000e+00 9.433979e-05 9.446380e-02 -1.004272e+00
171 1 5.000000e-06 2.500000e-06 0.000000e+00 9.432991e-05 7.072650e-02 -1.004272e+00
172 1 5.500000e-06 2.500000e-06 0.000000e+00 8.645215e-05 2.931369e-02 9.957275e-01
173 1 6.000000e-06 2.500000e-06 0.000000e+00 9.441016e-05 1.001547e-01 -1.004272e+00
174 1 6.500000e-06 2.500000e-06 0.000000e+00 9.441194e-05 1.177519e-01 9.957275e-01
175 1 7.000000e-06 2.500000e-06 0.000000e+00 9.411646e-05 5.896472e-02 -1.004272e+00
176 1 7.500000e-06 2.500000e-06 0.000000e+00 8.668445e-05 6.512576e-02 9.957275e-01
177 1 8.000000e-06 2.500000e-06 0.000000e+00 8.667918e-05 5.818140e-02 -1.004272e+00
178 1 8.500000e-06 2.500000e-06 0.000000e+00 8.667509e-05 7.104845e-02 9.957275e-01
179 1 9.000000e-06 2.500000e-06 0.000000e+00 8.644350e-05 2.908597e-02 9.957275e-01
180 1 9.500000e-06 2.500000e-06 0.000000e+00 9.410939e-05 5.863021e-02 -1.004272e+00
181 1 1.000000e-05 2.500000e-06 0.000000e+00 8.644048e-05 2.900287e-02 9.957275e-01
182 1 1.050000e-05 2.500000e-06 0.000000e+00 8.666830e-05 7.086535e-02 -1.004272e+00
183 1 1.100000e-05 2.500000e-06 0.000000e+00 8.667006e-05 7.091381e-02 -1.004272e+00
184 1 1.150000e-05 2.500000e-06 0.000000e+00 8.667256e-05 6.482077e-02 9.957275e-01
185 1 1.200000e-05 2.500000e-06 0.000000e+00 8.667735e-05 6.494694e-02 -1.004272e+00
186 1 1.250000e-05 2.500000e-06 0.000000e+00 8.667777e-05 6.495764e-02 9.957275e-01
187 1 1.300000e-05 2.500000e-06 0.000000e+00 8.658874e-05 2.982771e-02 -1.004272e+00
188 1 1.350000e-05 2.500000e-06 0.000000e+00 9.441194e-05 1.172968e-01 9.957275e-01
189 1 1.400000e-05 2.500000e-06 0.000000e+00 9.433617e-05 9.429747e-02 -1.004272e+00
190 1 1.450000e-05 2.500000e-06 0.000000e+00 8.644741e-05 2.919091e-02 9.957275e-01
191 1 1.500000e-05 2.500000e-06 0.000000e+00 8.666826e-05 7.086423e-02 -1.004272e+00
192 1 1.550000e-05 2.500000e-06 0.000000e+00 9.410789e-05 5.856313e-02 9.957275e-01
193 1 0.000000e+00 3.000000e-06 0.000000e+00 8.666789e-05 8.674556e-02 -1.004272e+00
194 1 5.000000e-07 3.000000e-06 0.000000e+00 8.645413e-05 2.936380e-02 9.957275e-01
195 1 1.000000e-06 3.000000e-06 0.000000e+00 8.667120e-05 7.094461e-02 -1.004272e+00
196 1 1.500000e-06 3.000000e-06 0.000000e+00 9.434637e-05 9.478918e-02 9.957275e-01
197 1 2.000000e-06 3.000000e-06 0.000000e+00 8.643904e-05 2.896260e-02 -1.004272e+00
198 1 2.500000e-06 3.000000e-06 0.000000e+00 9.433976e-05 1.006227e-01 9.957275e-01
199 1 3.000000e-06 3.000000e-06 0.000000e+00 9.441205e-05 1.376981e-01 -1.004272e+00
200 1 3.500000e-06 3.000000e-06 0.000000e+00 9.433694e-05 9.433231e-02 9.957275e-01
201 1 4.000000e-06 3.000000e-06 0.000000e+00 8.667547e-05 5.808541e-02 -1.004272e+00
202 1 4.500000e-06 3.000000e-06 0.000000e+00 8.667318e-05 5.802492e-02 9.957275e-01
203 1 5.000000e-06 3.000000e-06 0.000000e+00 9.441203e-05 1.248060e-01 -1.004272e+00
204 1 5.500000e-06 3.000000e-06 0.000000e+00 8.668266e-05 7.124197e-02 9.957275e-01
205 1 6.000000e-06 3.000000e-06 0.000000e+00 8.666500e-05 4.115048e-02 -1.004272e+00
206 1 6.500000e-06 3.000000e-06 0.000000e+00 9.433059e-05 7.075849e-02 9.957275e-01
207 1 7.000000e-06 3.000000e-06 0.000000e+00 9.441204e-05 1.305465e-01 -1.004272e+00
208 1 7.500000e-06 3.000000e-06 0.000000e+00 8.669098e-05 5.846990e-02 9.957275e-01
209 1 8.000000e-06 3.000000e-06 0.000000e+00 7.893226e-05 5.030761e-04 -1.004272e+00
210 1 8.500000e-06 3.000000e-06 0.000000e+00 8.643727e-05 2.891230e-02 9.957275e-01
211 1 9.000000e-06 3.000000e-06 0.000000e+00 9.410902e-05 5.861322e-02 -1.004272e+00
212 1 9.500000e-06 3.000000e-06 0.000000e+00 9.441203e-05 1.250461e-01 9.957275e-01
213 1 1.000000e-05 3.000000e-06 0.000000e+00 8.667294e-05 6.483099e-02 -1.004272e+00
214 1 1.050000e-05 3.000000e-06 0.000000e+00 8.644907e-05 2.923437e-02 9.957275e-01
215 1 1.100000e-05 3.000000e-06 0.000000e+00 8.666355e-05 4.111201e-02 9.957275e-01
216 1 1.150000e-05 3.000000e-06 0.000000e+00 9.441203e-05 1.244849e-01 -1.004272e+00
217 1 1.200000e-05 3.000000e-06 0.000000e+00 8.666533e-05 4.115911e-02 -1.004272e+00
218 1 1.250000e-05 3.000000e-06 0.000000e+00 8.666015e-05 4.102008e-02 9.957275e-01
219 1 1.300000e-05 3.000000e-06 0.000000e+00 8.667163e-05 7.095629e-02 9.957275e-01
220 1 1.350000e-05 3.000000e-06 0.000000e+00 9.433529e-05 8.744710e-02 -1.004272e+00
221 1 1.400000e-05 3.000000e-06 0.000000e+00 8.667965e-05 7.116644e-02 9.957275e-01
222 1 1.450000e-05 3.000000e-06 0.000000e+00 8.666994e-05 6.474970e-02 9.957275e-01
223 1 1.500000e-05 3.000000e-06 0.000000e+00 9.434020e-05 9.448333e-02 -1.004272e+00
224 1 1.550000e-05 3.000000e-06 0.000000e+00 9.441206e-05 1.659001e-01 9.957275e-01
225 1 0.000000e+00 3.500000e-06 0.000000e+00 8.667293e-05 8.193023e-02 9.957275e-01
226 1 5.000000e-07 3.500000e-06 0.000000e+00 8.667028e-05 5.794675e-02 -1.004272e+00
227 1 1.000000e-06 3.500000e-06 0.000000e+00 8.666509e-05 5.780241e-02 9.957275e-01
228 1 1.500000e-06 3.500000e-06 0.000000e+00 8.666840e-05 6.470735e-02 -1.004272e+00
229 1 2.000000e-06 3.500000e-06 0.000000e+00 8.644098e-05 2.901672e-02 9.957275e-01
230 1 2.500000e-06 3.500000e-06 0.000000e+00 9.434257e-05 8.778732e-02 -1.004272e+00
231 1 3.000000e-06 3.500000e-06 0.000000e+00 9.441204e-05 1.318290e-01 9.957275e-01
232 1 3.500000e-06 3.500000e-06 0.000000e+00 9.441195e-05 1.247380e-01 -1.004272e+00
233 1 4.000000e-06 3.500000e-06 0.000000e+00 8.667663e-05 6.492808e-02 9.957275e-01
234 1 4.500000e-06 3.500000e-06 0.000000e+00 8.645151e-05 2.929741e-02 -1.004272e+00
235 1 5.000000e-06 3.500000e-06 0.000000e+00 8.668626e-05 6.517001e-02 9.957275e-01
236 1 5.500000e-06 3.500000e-06 0.000000e+00 9.441203e-05 1.244806e-01 -1.004272e+00
237 1 6.000000e-06 3.500000e-06 0.000000e+00 8.667258e-05 6.482141e-02 9.957275e-01
238 1 6.500000e-06 3.500000e-06 0.000000e+00 8.668682e-05 6.518345e-02 -1.004272e+00
239 1 7.000000e-06 3.500000e-06 0.000000e+00 8.667105e-05 6.478007e-02 9.957275e-01
240 1 7.500000e-06 3.500000e-06 0.000000e+00 8.667187e-05 7.096278e-02 -1.004272e+00
241 1 8.000000e-06 3.500000e-06 0.000000e+00 9.434299e-05 1.007782e-01 -1.004272e+00
242 1 8.500000e-06 3.500000e-06 0.000000e+00 9.432957e-05 7.071057e-02 -1.004272e+00
243 1 9.000000e-06 3.500000e-06 0.000000e+00 9.441194e-05 1.171935e-01 9.957275e-01
244 1 9.500000e-06 3.500000e-06 0.000000e+00 9.411274e-05 5.878449e-02 -1.004272e+00
245 1 1.000000e-05 3.500000e-06 0.000000e+00 8.645038e-05 2.926821e-02 9.957275e-01
246 1 1.050000e-05 3.500000e-06 0.000000e+00 7.893798e-05 6.436379e-04 -1.004272e+00
247 1 1.100000e-05 3.500000e-06 0.000000e+00 8.667611e-05 6.491457e-02 9.957275e-01
248 1 1.150000e-05 3.500000e-06 0.000000e+00 9.441203e-05 1.248172e-01 -1.004272e+00
249 1 1.200000e-05 3.500000e-06 0.000000e+00 8.666727e-05 5.786386e-02 9.957275e-01
250 1 1.250000e-05 3.500000e-06 0.000000e+00 9.434169e-05 8.774429e-02 -1.004272e+00
251 1 1.300000e-05 3.500000e-06 0.000000e+00 8.666962e-05 7.090159e-02 9.957275e-01
252 1 1.350000e-05 3.500000e-06 0.000000e+00 8.666904e-05 6.472524e-02 9.957275e-01
253 1 1.400000e-05 3.500000e-06 0.000000e+00 8.645213e-05 2.931322e-02 9.957275e-01
254 1 1.450000e-05 3.500000e-06 0.000000e+00 8.667333e-05 5.802888e-02 -1.004272e+00
255 1 1.500000e-05 3.500000e-06 0.000000e+00 8.666468e-05 4.114197e-02 9.957275e-01
256 1 1.550000e-05 3.500000e-06 0.000000e+00 9.434070e-05 9.450690e-02 -1.004272e+00
257 1 0.000000e+00 4.000000e-06 0.000000e+00 8.666927e-05 8.678374e-02 -1.004272e+00
258 1 5.000000e-07 4.000000e-06 0.000000e+00 8.668007e-05 6.501636e-02 9.957275e-01
259 1 1.000000e-06 4.000000e-06 0.000000e+00 8.667436e-05 6.486868e-02 -1.004272e+00
260 1 1.500000e-06 4.000000e-06 0.000000e+00 8.667746e-05 7.111029e-02 9.957275e-01
261 1 2.000000e-06 4.000000e-06 0.000000e+00 8.666454e-05 7.075956e-02 -1.004272e+00
262 1 2.500000e-06 4.000000e-06 0.000000e+00 8.668751e-05 7.136064e-02 -1.004272e+00
263 1 3.000000e-06 4.000000e-06 0.000000e+00 9.433468e-05 7.095804e-02 9.957275e-01
264 1 3.500000e-06 4.000000e-06 0.000000e+00 8.665702e-05 4.093338e-02 -1.004272e+00
265 1 4.000000e-06 4.000000e-06 0.000000e+00 8.667196e-05 7.096512e-02 9.957275e-01
266 1 4.500000e-06 4.000000e-06 0.000000e+00 9.441203e-05 1.247474e-01 -1.004272e+00
267 1 5.000000e-06 4.000000e-06 0.000000e+00 8.667750e-05 6.495073e-02 9.957275e-01
268 1 5.500000e-06 4.000000e-06 0.000000e+00 8.666673e-05 4.119575e-02 -1.004272e+00
269 1 6.000000e-06 4.000000e-06 0.000000e+00 9.441205e-05 1.310845e-01 -1.004272e+00
270 1 6.500000e-06 4.000000e-06 0.000000e+00 8.667276e-05 5.801383e-02 9.957275e-01
271 1 7.000000e-06 4.000000e-06 0.000000e+00 9.441203e-05 1.244071e-01 -1.004272e+00
272 1 7.500000e-06 4.000000e-06 0.000000e+00 9.441204e-05 1.315648e-01 -1.004272e+00
273 1 8.000000e-06 4.000000e-06 0.000000e+00 9.441194e-05 1.177647e-01 9.957275e-01
274 1 8.500000e-06 4.000000e-06 0.000000e+00 9.434265e-05 9.460134e-02 9.957275e-01
275 1 9.000000e-06 4.000000e-06 0.000000e+00 9.433690e-05 9.433013e-02 -1.004272e+00
276 1 9.500000e-06 4.000000e-06 0.000000e+00 8.668041e-05 5.821256e-02 9.957275e-01
277 1 1.000000e-05 4.000000e-06 0.000000e+00 8.667601e-05 5.809976e-02 -1.004272e+00
278 1 1.050000e-05 4.000000e-06 0.000000e+00 8.667301e-05 4.135558e-02 9.957275e-01
279 1 1.100000e-05 4.000000e-06 0.000000e+00 8.644209e-05 2.904741e-02 -1.004272e+00
280 1 1.150000e-05 4.000000e-06 0.000000e+00 8.666765e-05 7.084726e-02 9.957275e-01
281 1 1.200000e-05 4.000000e-06 0.000000e+00 9.441195e-05 1.250394e-01 -1.004272e+00
282 1 1.250000e-05 4.000000e-06 0.000000e+00 9.441194e-05 1.177110e-01 9.957275e-01
283 1 1.300000e-05 4.000000e-06 0.000000e+00 9.434169e-05 9.455463e-02 -1.004272e+00
284 1 1.350000e-05 4.000000e-06 0.000000e+00 8.667654e-05 5.811345e-02 9.957275e-01
285 1 1.400000e-05 4.000000e-06 0.000000e+00 8.667072e-05 6.477120e-02 -1.004272e+00
286 1 1.450000e-05 4.000000e-06 0.000000e+00 8.667664e-05 6.492833e-02 9.957275e-01
287 1 1.500000e-05 4.000000e-06 0.000000e+00 8.666941e-05 4.126499e-02 -1.004272e+00
288 1 1.550000e-05 4.000000e-06 0.000000e+00 9.433894e-05 1.164762e-01 -1.004272e+00
289 1 0.000000e+00 4.500000e-06 0.000000e+00 8.666587e-05 8.173610e-02 -1.004272e+00
290 1 5.000000e-07 4.500000e-06 0.000000e+00 8.667082e-05 5.796145e-02 -1.004272e+00
291 1 1.000000e-06 4.500000e-06 0.000000e+00 8.666517e-05 5.780476e-02 9.957275e-01
292 1 1.500000e-06 4.500000e-06 0.000000e+00 8.666983e-05 5.793443e-02 9.957275e-01
293 1 2.000000e-06 4.500000e-06 0.000000e+00 9.441194e-05 1.178033e-01 -1.004272e+00
294 1 2.500000e-06 4.500000e-06 0.000000e+00 8.666763e-05 5.787381e-02 9.957275e-01
295 1 3.000000e-06 4.500000e-06 0.000000e+00 9.441203e-05 1.249149e-01 -1.004272e+00
296 1 3.500000e-06 4.500000e-06 0.000000e+00 8.667453e-05 6.487310e-02 9.957275e-01
297 1 4.000000e-06 4.500000e-06 0.000000e+00 9.433782e-05 8.756162e-02 -1.004272e+00
298 1 4.500000e-06 4.500000e-06 0.000000e+00 8.667759e-05 5.814052e-02 9.957275e-01
299 1 5.000000e-06 4.500000e-06 0.000000e+00 9.441194e-05 1.177721e-01 -1.004272e+00
300 1 5.500000e-06 4.500000e-06 0.000000e+00 8.667370e-05 5.803890e-02 9.957275e-01
301 1 6.000000e-06 4.500000e-06 0.000000e+00 8.666034e-05 4.102520e-02 -1.004272e+00
302 1 6.500000e-06 4.500000e-06 0.000000e+00 8.667385e-05 6.485511e-02 -1.004272e+00
303 1 7.000000e-06 4.500000e-06 0.000000e+00 8.666650e-05 6.465444e-02 9.957275e-01
304 1 7.500000e-06 4.500000e-06 0.000000e+00 8.667141e-05 7.095034e-02 -1.004272e+00
305 1 8.000000e-06 4.500000e-06 0.000000e+00 9.433988e-05 1.006286e-01 -1.004272e+00
306 1 8.500000e-06 4.500000e-06 0.000000e+00 9.434663e-05 1.009628e-01 -1.004272e+00
307 1 9.000000e-06 4.500000e-06 0.000000e+00 8.666467e-05 5.779039e-02 9.957275e-01
308 1 9.500000e-06 4.500000e-06 0.000000e+00 9.434134e-05 8.772727e-02 -1.004272e+00
309 1 1.000000e-05 4.500000e-06 0.000000e+00 8.644817e-05 2.921077e-02 9.957275e-01
310 1 1.050000e-05 4.500000e-06 0.000000e+00 8.667276e-05 7.098662e-02 9.957275e-01
311 1 1.100000e-05 4.500000e-06 0.000000e+00 9.434188e-05 8.775352e-02 -1.004272e+00
312 1 1.150000e-05 4.500000e-06 0.000000e+00 8.666017e-05 4.102056e-02 -1.004272e+00
313 1 1.200000e-05 4.500000e-06 0.000000e+00 8.667844e-05 6.497492e-02 9.957275e-01
314 1 1.250000e-05 4.500000e-06 0.000000e+00 9.434404e-05 1.008306e-01 -1.004272e+00
315 1 1.300000e-05 4.500000e-06 0.000000e+00 9.433642e-05 1.004687e-01 -1.004272e+00
316 1 1.350000e-05 4.500000e-06 0.000000e+00 8.667973e-05 6.500789e-02 9.957275e-01
317 1 1.400000e-05 4.500000e-06 0.000000e+00 8.667795e-05 6.496241e-02 -1.004272e+00
318 1 1.450000e-05 4.500000e-06 0.000000e+00 8.666920e-05 6.472943e-02 9.957275e-01
319 1 1.500000e-05 4.500000e-06 0.000000e+00 9.433841e-05 8.758904e-02 -1.004272e+00
320 1 1.550000e-05 4.500000e-06 0.000000e+00 9.441206e-05 1.661182e-01 9.957275e-01
321 1 0.000000e+00 5.000000e-06 0.000000e+00 8.667174e-05 8.685105e-02 -1.004272e+00
322 1 5.000000e-07 5.000000e-06 0.000000e+00 8.666844e-05 6.470852e-02 9.957275e-01
323 1 1.000000e-06 5.000000e-06 0.000000e+00 8.667321e-05 6.483806e-02 -1.004272e+00
324 1 1.500000e-06 5.000000e-06 0.000000e+00 8.667618e-05 4.143370e-02 9.957275e-01
325 1 2.000000e-06 5.000000e-06 0.000000e+00 8.667062e-05 7.092903e-02 -1.004272e+00
326 1 2.500000e-06 5.000000e-06 0.000000e+00 8.667371e-05 6.485141e-02 -1.004272e+00
327 1 3.000000e-06 5.000000e-06 0.000000e+00 8.668205e-05 6.506632e-02 9.957275e-01
328 1 3.500000e-06 5.000000e-06 0.000000e+00 9.433879e-05 8.760637e-02 -1.004272e+00
329 1 4.000000e-06 5.000000e-06 0.000000e+00 9.441194e-05 1.170282e-01 9.957275e-01
330 1 4.500000e-06 5.000000e-06 0.000000e+00 9.433974e-05 8.765098e-02 -1.004272e+00
331 1 5.000000e-06 5.000000e-06 0.000000e+00 8.667721e-05 5.813093e-02 9.957275e-01
332 1 5.500000e-06 5.000000e-06 0.000000e+00 9.433866e-05 8.760060e-02 -1.004272e+00
333 1 6.000000e-06 5.000000e-06 0.000000e+00 8.644518e-05 2.913148e-02 -1.004272e+00
334 1 6.500000e-06 5.000000e-06 0.000000e+00 8.667230e-05 6.481383e-02 9.957275e-01
335 1 7.000000e-06 5.000000e-06 0.000000e+00 8.667903e-05 5.817753e-02 -1.004272e+00
336 1 7.500000e-06 5.000000e-06 0.000000e+00 8.668252e-05 6.507791e-02 9.957275e-01
337 1 8.000000e-06 5.000000e-06 0.000000e+00 9.434436e-05 9.468657e-02 -1.004272e+00
338 1 8.500000e-06 5.000000e-06 0.000000e+00 9.441194e-05 1.180100e-01 9.957275e-01
339 1 9.000000e-06 5.000000e-06 0.000000e+00 8.667527e-05 5.808033e-02 -1.004272e+00
340 1 9.500000e-06 5.000000e-06 0.000000e+00 9.441194e-05 1.175372e-01 9.957275e-01
341 1 1.000000e-05 5.000000e-06 0.000000e+00 9.433403e-05 9.420234e-02 -1.004272e+00
342 1 1.050000e-05 5.000000e-06 0.000000e+00 9.434392e-05 9.466449e-02 -1.004272e+00
343 1 1.100000e-05 5.000000e-06 0.000000e+00 9.441194e-05 1.175524e-01 9.957275e-01
344 1 1.150000e-05 5.000000e-06 0.000000e+00 9.411314e-05 5.880329e-02 9.957275e-01
345 1 1.200000e-05 5.000000e-06 0.000000e+00 8.667360e-05 5.803609e-02 -1.004272e+00
346 1 1.250000e-05 5.000000e-06 0.000000e+00 9.433915e-05 9.443382e-02 9.957275e-01
347 1 1.300000e-05 5.000000e-06 0.000000e+00 9.441194e-05 1.174761e-01 9.957275e-01
348 1 1.350000e-05 5.000000e-06 0.000000e+00 8.659152e-05 2.995792e-02 -1.004272e+00
349 1 1.400000e-05 5.000000e-06 0.000000e+00 8.645175e-05 2.930342e-02 9.957275e-01
350 1 1.450000e-05 5.000000e-06 0.000000e+00 8.666730e-05 6.467686e-02 -1.004272e+00
351 1 1.500000e-05 5.000000e-06 0.000000e+00 8.667172e-05 5.798587e-02 9.957275e-01
352 1 1.550000e-05 5.000000e-06 0.000000e+00 9.433799e-05 1.114791e-01 -1.004272e+00
353 1 0.000000e+00 5.500000e-06 0.000000e+00 8.668135e-05 6.504863e-02 9.957275e-01
354 1 5.000000e-07 5.500000e-06 0.000000e+00 7.892586e-05 3.388095e-04 -1.004272e+00