ITEM: TIMESTEP
11
ITEM: NUMBER OF ATOMS
16384
ITEM: BOX BOUNDS pp pp pp
0.0 1.600000e-05
0.0 1.600000e-05
0.0 8.000000e-06
ITEM: ATOMS id type x y z crack plastic psi
1 1 0.000000e+00 0.000000e+00 0.000000e+00 1.000000e+00 8.427029e-01 -1.000610e+00
2 1 5.000000e-07 0.000000e+00 0.000000e+00 1.000000e+00 7.486972e-01 9.993896e-01
3 1 1.000000e-06 0.000000e+00 0.000000e+00 1.000000e+00 7.307877e-01 -1.000610e+00
4 1 1.500000e-06 0.000000e+00 0.000000e+00 1.000000e+00 7.243214e-01 9.993896e-01
5 1 2.000000e-06 0.000000e+00 0.000000e+00 1.000000e+00 7.242806e-01 -1.000610e+00
6 1 2.500000e-06 0.000000e+00 0.000000e+00 1.000000e+00 7.210542e-01 9.993896e-01
7 1 3.000000e-06 0.000000e+00 0.000000e+00 1.000000e+00 7.272269e-01 -1.000610e+00
8 1 3.500000e-06 0.000000e+00 0.000000e+00 1.000000e+00 7.272080e-01 9.993896e-01
9 1 4.000000e-06 0.000000e+00 0.000000e+00 1.000000e+00 7.271908e-01 -1.000610e+00
10 1 4.500000e-06 0.000000e+00 0.000000e+00 1.000000e+00 7.175034e-01 9.993896e-01
11 1 5.000000e-06 0.000000e+00 0.000000e+00 1.000000e+00 7.234963e-01 -1.000610e+00
12 1 5.500000e-06 0.000000e+00 0.000000e+00 1.000000e+00 7.163770e-01 9.993896e-01
13 1 6.000000e-06 0.000000e+00 0.000000e+00 1.000000e+00 7.162600e-01 -1.000610e+00
14 1 6.500000e-06 0.000000e+00 0.000000e+00 1.000000e+00 7.271906e-01 9.993896e-01
15 1 7.000000e-06 0.000000e+00 0.000000e+00 1.000000e+00 7.375298e-01 -1.000610e+00
16 1 7.500000e-06 0.000000e+00 0.000000e+00 1.000000e+00 7.460757e-01 9.993896e-01
17 1 8.000000e-06 0.000000e+00 0.000000e+00 1.000000e+00 7.338925e-01 -1.000610e+00
18 1 8.500000e-06 0.000000e+00 0.000000e+00 1.000000e+00 7.285314e-01 9.993896e-01
19 1 9.000000e-06 0.000000e+00 0.000000e+00 1.000000e+00 7.379323e-01 -1.000610e+00
20 1 9.500000e-06 0.000000e+00 0.000000e+00 1.000000e+00 7.322673e-01 9.993896e-01
21 1 1.000000e-05 0.000000e+00 0.000000e+00 1.000000e+00 7.406645e-01 -1.000610e+00
22 1 1.050000e-05 0.000000e+00 0.000000e+00 1.000000e+00 7.293895e-01 -1.000610e+00
23 1 1.100000e-05 0.000000e+00 0.000000e+00 1.000000e+00 7.393330e-01 9.993896e-01
24 1 1.150000e-05 0.000000e+00 0.000000e+00 1.000000e+00 7.393695e-01 -1.000610e+00
25 1 1.200000e-05 0.000000e+00 0.000000e+00 1.000000e+00 7.290763e-01 9.993896e-01
26 1 1.250000e-05 0.000000e+00 0.000000e+00 1.000000e+00 7.313494e-01 9.993896e-01
27 1 1.300000e-05 0.000000e+00 0.000000e+00 1.000000e+00 7.409106e-01 -1.000610e+00
28 1 1.350000e-05 0.000000e+00 0.000000e+00 1.000000e+00 7.363417e-01 9.993896e-01
29 1 1.400000e-05 0.000000e+00 0.000000e+00 1.000000e+00 7.327341e-01 -1.000610e+00
30 1 1.450000e-05 0.000000e+00 0.000000e+00 1.000000e+00 7.195775e-01 9.993896e-01
31 1 1.500000e-05 0.000000e+00 0.000000e+00 1.000000e+00 7.389768e-01 -1.000610e+00
32 1 1.550000e-05 0.000000e+00 0.000000e+00 1.000000e+00 8.721169e-01 9.993896e-01
33 1 0.000000e+00 5.000000e-07 0.000000e+00 1.000000e+00 6.578814e-01 9.993896e-01
34 1 5.000000e-07 5.000000e-07 0.000000e+00 1.000000e+00 5.214748e-01 -1.000610e+00
35 1 1.000000e-06 5.000000e-07 0.000000e+00 1.000000e+00 4.994140e-01 9.993896e-01
36 1 1.500000e-06 5.000000e-07 0.000000e+00 1.000000e+00 5.028779e-01 -1.000610e+00
37 1 2.000000e-06 5.000000e-07 0.000000e+00 1.000000e+00 5.024461e-01 9.993896e-01
38 1 2.500000e-06 5.000000e-07 0.000000e+00 1.000000e+00 5.063468e-01 -1.000610e+00
39 1 3.000000e-06 5.000000e-07 0.000000e+00 1.000000e+00 4.981368e-01 9.993896e-01
40 1 3.500000e-06 5.000000e-07 0.000000e+00 1.000000e+00 5.071960e-01 -1.000610e+00
41 1 4.000000e-06 5.000000e-07 0.000000e+00 1.000000e+00 5.078230e-01 9.993896e-01
42 1 4.500000e-06 5.000000e-07 0.000000e+00 1.000000e+00 5.039387e-01 -1.000610e+00
43 1 5.000000e-06 5.000000e-07 0.000000e+00 1.000000e+00 4.952754e-01 9.993896e-01
44 1 5.500000e-06 5.000000e-07 0.000000e+00 1.000000e+00 4.797859e-01 -1.000610e+00
45 1 6.000000e-06 5.000000e-07 0.000000e+00 1.000000e+00 4.937057e-01 9.993896e-01
46 1 6.500000e-06 5.000000e-07 0.000000e+00 1.000000e+00 5.178151e-01 -1.000610e+00
47 1 7.000000e-06 5.000000e-07 0.000000e+00 1.000000e+00 5.214453e-01 9.993896e-01
48 1 7.500000e-06 5.000000e-07 0.000000e+00 1.000000e+00 5.570751e-01 -1.000610e+00
49 1 8.000000e-06 5.000000e-07 0.000000e+00 1.000000e+00 5.242896e-01 9.993896e-01
50 1 8.500000e-06 5.000000e-07 0.000000e+00 1.000000e+00 5.115979e-01 -1.000610e+00
51 1 9.000000e-06 5.000000e-07 0.000000e+00 1.000000e+00 5.046687e-01 9.993896e-01
52 1 9.500000e-06 5.000000e-07 0.000000e+00 1.000000e+00 5.353288e-01 -1.000610e+00
53 1 1.000000e-05 5.000000e-07 0.000000e+00 1.000000e+00 5.194146e-01 9.993896e-01
54 1 1.050000e-05 5.000000e-07 0.000000e+00 1.000000e+00 5.166906e-01 9.993896e-01
55 1 1.100000e-05 5.000000e-07 0.000000e+00 1.000000e+00 5.195665e-01 -1.000610e+00
56 1 1.150000e-05 5.000000e-07 0.000000e+00 1.000000e+00 5.104052e-01 9.993896e-01
57 1 1.200000e-05 5.000000e-07 0.000000e+00 1.000000e+00 5.072348e-01 9.993896e-01
58 1 1.250000e-05 5.000000e-07 0.000000e+00 1.000000e+00 4.965961e-01 -1.000610e+00
59 1 1.300000e-05 5.000000e-07 0.000000e+00 1.000000e+00 5.121687e-01 9.993896e-01
60 1 1.350000e-05 5.000000e-07 0.000000e+00 1.000000e+00 5.067288e-01 -1.000610e+00
61 1 1.400000e-05 5.000000e-07 0.000000e+00 1.000000e+00 5.083720e-01 9.993896e-01
62 1 1.450000e-05 5.000000e-07 0.000000e+00 1.000000e+00 5.318155e-01 -1.000610e+00
63 1 1.500000e-05 5.000000e-07 0.000000e+00 1.000000e+00 5.364564e-01 9.993896e-01
64 1 1.550000e-05 5.000000e-07 0.000000e+00 1.000000e+00 7.030856e-01 -1.000610e+00
65 1 0.000000e+00 1.000000e-06 0.000000e+00 1.000000e+00 6.800467e-01 -1.000610e+00
66 1 5.000000e-07 1.000000e-06 0.000000e+00 1.000000e+00 5.342109e-01 9.993896e-01
67 1 1.000000e-06 1.000000e-06 0.000000e+00 1.000000e+00 5.027440e-01 -1.000610e+00
68 1 1.500000e-06 1.000000e-06 0.000000e+00 1.000000e+00 4.994154e-01 9.993896e-01
69 1 2.000000e-06 1.000000e-06 0.000000e+00 1.000000e+00 4.978559e-01 -1.000610e+00
70 1 2.500000e-06 1.000000e-06 0.000000e+00 1.000000e+00 4.981239e-01 9.993896e-01
71 1 3.000000e-06 1.000000e-06 0.000000e+00 1.000000e+00 4.907025e-01 -1.000610e+00
72 1 3.500000e-06 1.000000e-06 0.000000e+00 1.000000e+00 5.078408e-01 9.993896e-01
73 1 4.000000e-06 1.000000e-06 0.000000e+00 1.000000e+00 5.207829e-01 -1.000610e+00
74 1 4.500000e-06 1.000000e-06 0.000000e+00 1.000000e+00 5.343667e-01 9.993896e-01
75 1 5.000000e-06 1.000000e-06 0.000000e+00 1.000000e+00 5.310085e-01 -1.000610e+00
76 1 5.500000e-06 1.000000e-06 0.000000e+00 1.000000e+00 5.204765e-01 9.993896e-01
77 1 6.000000e-06 1.000000e-06 0.000000e+00 1.000000e+00 5.310263e-01 -1.000610e+00
78 1 6.500000e-06 1.000000e-06 0.000000e+00 1.000000e+00 4.994524e-01 9.993896e-01
79 1 7.000000e-06 1.000000e-06 0.000000e+00 1.000000e+00 4.916523e-01 -1.000610e+00
80 1 7.500000e-06 1.000000e-06 0.000000e+00 1.000000e+00 5.297164e-01 9.993896e-01
81 1 8.000000e-06 1.000000e-06 0.000000e+00 1.000000e+00 5.099039e-01 -1.000610e+00
82 1 8.500000e-06 1.000000e-06 0.000000e+00 1.000000e+00 5.109846e-01 9.993896e-01
83 1 9.000000e-06 1.000000e-06 0.000000e+00 1.000000e+00 5.350225e-01 -1.000610e+00
84 1 9.500000e-06 1.000000e-06 0.000000e+00 1.000000e+00 5.468739e-01 9.993896e-01
85 1 1.000000e-05 1.000000e-06 0.000000e+00 1.000000e+00 5.275625e-01 -1.000610e+00
86 1 1.050000e-05 1.000000e-06 0.000000e+00 1.000000e+00 5.031839e-01 9.993896e-01
87 1 1.100000e-05 1.000000e-06 0.000000e+00 1.000000e+00 5.280604e-01 -1.000610e+00
88 1 1.150000e-05 1.000000e-06 0.000000e+00 1.000000e+00 5.013681e-01 9.993896e-01
89 1 1.200000e-05 1.000000e-06 0.000000e+00 1.000000e+00 5.299914e-01 -1.000610e+00
90 1 1.250000e-05 1.000000e-06 0.000000e+00 1.000000e+00 5.173503e-01 9.993896e-01
91 1 1.300000e-05 1.000000e-06 0.000000e+00 1.000000e+00 5.148304e-01 -1.000610e+00
92 1 1.350000e-05 1.000000e-06 0.000000e+00 1.000000e+00 5.142961e-01 9.993896e-01
93 1 1.400000e-05 1.000000e-06 0.000000e+00 1.000000e+00 5.146632e-01 -1.000610e+00
94 1 1.450000e-05 1.000000e-06 0.000000e+00 1.000000e+00 5.216514e-01 9.993896e-01
95 1 1.500000e-05 1.000000e-06 0.000000e+00 1.000000e+00 5.357713e-01 -1.000610e+00
96 1 1.550000e-05 1.000000e-06 0.000000e+00 1.000000e+00 7.164827e-01 9.993896e-01
97 1 0.000000e+00 1.500000e-06 0.000000e+00 1.000000e+00 6.995145e-01 9.993896e-01
98 1 5.000000e-07 1.500000e-06 0.000000e+00 1.000000e+00 5.302886e-01 -1.000610e+00
99 1 1.000000e-06 1.500000e-06 0.000000e+00 1.000000e+00 5.098788e-01 9.993896e-01
100 1 1.500000e-06 1.500000e-06 0.000000e+00 1.000000e+00 5.206015e-01 -1.000610e+00
101 1 2.000000e-06 1.500000e-06 0.000000e+00 1.000000e+00 5.214956e-01 9.993896e-01
102 1 2.500000e-06 1.500000e-06 0.000000e+00 1.000000e+00 5.178230e-01 -1.000610e+00
103 1 3.000000e-06 1.500000e-06 0.000000e+00 1.000000e+00 5.142016e-01 9.993896e-01
104 1 3.500000e-06 1.500000e-06 0.000000e+00 1.000000e+00 5.141956e-01 -1.000610e+00
105 1 4.000000e-06 1.500000e-06 0.000000e+00 1.000000e+00 5.250477e-01 9.993896e-01
106 1 4.500000e-06 1.500000e-06 0.000000e+00 1.000000e+00 5.291456e-01 -1.000610e+00
107 1 5.000000e-06 1.500000e-06 0.000000e+00 1.000000e+00 5.290204e-01 9.993896e-01
108 1 5.500000e-06 1.500000e-06 0.000000e+00 1.000000e+00 5.264963e-01 -1.000610e+00
109 1 6.000000e-06 1.500000e-06 0.000000e+00 1.000000e+00 5.122768e-01 9.993896e-01
110 1 6.500000e-06 1.500000e-06 0.000000e+00 1.000000e+00 5.219648e-01 -1.000610e+00
111 1 7.000000e-06 1.500000e-06 0.000000e+00 1.000000e+00 5.231323e-01 9.993896e-01
112 1 7.500000e-06 1.500000e-06 0.000000e+00 1.000000e+00 5.189397e-01 -1.000610e+00
113 1 8.000000e-06 1.500000e-06 0.000000e+00 1.000000e+00 5.174629e-01 9.993896e-01
114 1 8.500000e-06 1.500000e-06 0.000000e+00 1.000000e+00 5.137128e-01 -1.000610e+00
115 1 9.000000e-06 1.500000e-06 0.000000e+00 1.000000e+00 5.296670e-01 9.993896e-01
116 1 9.500000e-06 1.500000e-06 0.000000e+00 1.000000e+00 5.303421e-01 -1.000610e+00
117 1 1.000000e-05 1.500000e-06 0.000000e+00 1.000000e+00 5.248843e-01 9.993896e-01
118 1 1.050000e-05 1.500000e-06 0.000000e+00 1.000000e+00 5.303507e-01 -1.000610e+00
119 1 1.100000e-05 1.500000e-06 0.000000e+00 1.000000e+00 5.326654e-01 9.993896e-01
120 1 1.150000e-05 1.500000e-06 0.000000e+00 1.000000e+00 5.267200e-01 -1.000610e+00
121 1 1.200000e-05 1.500000e-06 0.000000e+00 1.000000e+00 5.437881e-01 9.993896e-01
122 1 1.250000e-05 1.500000e-06 0.000000e+00 1.000000e+00 5.546040e-01 -1.000610e+00
123 1 1.300000e-05 1.500000e-06 0.000000e+00 1.000000e+00 5.474761e-01 9.993896e-01
124 1 1.350000e-05 1.500000e-06 0.000000e+00 1.000000e+00 5.404849e-01 -1.000610e+00
125 1 1.400000e-05 1.500000e-06 0.000000e+00 1.000000e+00 5.342863e-01 9.993896e-01
126 1 1.450000e-05 1.500000e-06 0.000000e+00 1.000000e+00 5.418093e-01 -1.000610e+00
127 1 1.500000e-05 1.500000e-06 0.000000e+00 1.000000e+00 5.259879e-01 9.993896e-01
128 1 1.550000e-05 1.500000e-06 0.000000e+00 1.000000e+00 7.235213e-01 -1.000610e+00
129 1 0.000000e+00 2.000000e-06 0.000000e+00 1.000000e+00 7.094723e-01 -1.000610e+00
130 1 5.000000e-07 2.000000e-06 0.000000e+00 1.000000e+00 5.166602e-01 9.993896e-01
131 1 1.000000e-06 2.000000e-06 0.000000e+00 1.000000e+00 5.233680e-01 -1.000610e+00
132 1 1.500000e-06 2.000000e-06 0.000000e+00 1.000000e+00 5.195794e-01 9.993896e-01
133 1 2.000000e-06 2.000000e-06 0.000000e+00 1.000000e+00 5.091485e-01 -1.000610e+00
134 1 2.500000e-06 2.000000e-06 0.000000e+00 1.000000e+00 5.159372e-01 9.993896e-01
135 1 3.000000e-06 2.000000e-06 0.000000e+00 1.000000e+00 5.222786e-01 -1.000610e+00
136 1 3.500000e-06 2.000000e-06 0.000000e+00 1.000000e+00 5.142224e-01 9.993896e-01
137 1 4.000000e-06 2.000000e-06 0.000000e+00 1.000000e+00 5.268245e-01 -1.000610e+00
138 1 4.500000e-06 2.000000e-06 0.000000e+00 1.000000e+00 5.263011e-01 9.993896e-01
139 1 5.000000e-06 2.000000e-06 0.000000e+00 1.000000e+00 5.315073e-01 -1.000610e+00
140 1 5.500000e-06 2.000000e-06 0.000000e+00 1.000000e+00 5.041436e-01 9.993896e-01
141 1 6.000000e-06 2.000000e-06 0.000000e+00 1.000000e+00 5.241351e-01 -1.000610e+00
142 1 6.500000e-06 2.000000e-06 0.000000e+00 1.000000e+00 5.081819e-01 9.993896e-01
143 1 7.000000e-06 2.000000e-06 0.000000e+00 1.000000e+00 5.087566e-01 -1.000610e+00
144 1 7.500000e-06 2.000000e-06 0.000000e+00 1.000000e+00 5.127139e-01 9.993896e-01
145 1 8.000000e-06 2.000000e-06 0.000000e+00 1.000000e+00 5.139872e-01 -1.000610e+00
146 1 8.500000e-06 2.000000e-06 0.000000e+00 1.000000e+00 5.209710e-01 9.993896e-01
147 1 9.000000e-06 2.000000e-06 0.000000e+00 1.000000e+00 5.173607e-01 -1.000610e+00
148 1 9.500000e-06 2.000000e-06 0.000000e+00 1.000000e+00 5.050751e-01 9.993896e-01
149 1 1.000000e-05 2.000000e-06 0.000000e+00 1.000000e+00 5.387926e-01 -1.000610e+00
150 1 1.050000e-05 2.000000e-06 0.000000e+00 1.000000e+00 5.167064e-01 9.993896e-01
151 1 1.100000e-05 2.000000e-06 0.000000e+00 1.000000e+00 5.167185e-01 -1.000610e+00
152 1 1.150000e-05 2.000000e-06 0.000000e+00 1.000000e+00 5.350941e-01 9.993896e-01
153 1 1.200000e-05 2.000000e-06 0.000000e+00 1.000000e+00 5.416996e-01 -1.000610e+00
154 1 1.250000e-05 2.000000e-06 0.000000e+00 1.000000e+00 5.389512e-01 9.993896e-01
155 1 1.300000e-05 2.000000e-06 0.000000e+00 1.000000e+00 5.155788e-01 -1.000610e+00
156 1 1.350000e-05 2.000000e-06 0.000000e+00 1.000000e+00 5.205716e-01 9.993896e-01
157 1 1.400000e-05 2.000000e-06 0.000000e+00 1.000000e+00 5.203591e-01 -1.000610e+00
158 1 1.450000e-05 2.000000e-06 0.000000e+00 1.000000e+00 5.158713e-01 9.993896e-01
159 1 1.500000e-05 2.000000e-06 0.000000e+00 1.000000e+00 5.155979e-01 -1.000610e+00
160 1 1.550000e-05 2.000000e-06 0.000000e+00 1.000000e+00 7.217764e-01 9.993896e-01
161 1 0.000000e+00 2.500000e-06 0.000000e+00 1.000000e+00 7.180264e-01 9.993896e-01
162 1 5.000000e-07 2.500000e-06 0.000000e+00 1.000000e+00 5.262238e-01 -1.000610e+00
163 1 1.000000e-06 2.500000e-06 0.000000e+00 1.000000e+00 5.251699e-01 9.993896e-01
164 1 1.500000e-06 2.500000e-06 0.000000e+00 1.000000e+00 5.255734e-01 -1.000610e+00
165 1 2.000000e-06 2.500000e-06 0.000000e+00 1.000000e+00 5.180078e-01 9.993896e-01
166 1 2.500000e-06 2.500000e-06 0.000000e+00 1.000000e+00 5.072797e-01 -1.000610e+00
167 1 3.000000e-06 2.500000e-06 0.000000e+00 1.000000e+00 5.166543e-01 9.993896e-01
168 1 3.500000e-06 2.500000e-06 0.000000e+00 1.000000e+00 5.150477e-01 -1.000610e+00
169 1 4.000000e-06 2.500000e-06 0.000000e+00 1.000000e+00 5.220821e-01 9.993896e-01
170 1 4.500000e-06 2.500000e-06 0.000000e+00 1.000000e+00 5.211153e-01 -1.000610e+00
171 1 5.000000e-06 2.500000e-06 0.000000e+00 1.000000e+00 5.241961e-01 9.993896e-01
172 1 5.500000e-06 2.500000e-06 0.000000e+00 1.000000e+00 5.283463e-01 -1.000610e+00
173 1 6.000000e-06 2.500000e-06 0.000000e+00 1.000000e+00 5.265384e-01 9.993896e-01
174 1 6.500000e-06 2.500000e-06 0.000000e+00 1.000000e+00 5.271487e-01 -1.000610e+00
175 1 7.000000e-06 2.500000e-06 0.000000e+00 1.000000e+00 5.223884e-01 9.993896e-01
176 1 7.500000e-06 2.500000e-06 0.000000e+00 1.000000e+00 5.295863e-01 -1.000610e+00
177 1 8.000000e-06 2.500000e-06 0.000000e+00 1.000000e+00 5.312748e-01 9.993896e-01
178 1 8.500000e-06 2.500000e-06 0.000000e+00 1.000000e+00 5.332115e-01 -1.000610e+00
179 1 9.000000e-06 2.500000e-06 0.000000e+00 1.000000e+00 5.256518e-01 9.993896e-01
180 1 9.500000e-06 2.500000e-06 0.000000e+00 1.000000e+00 5.342084e-01 -1.000610e+00
181 1 1.000000e-05 2.500000e-06 0.000000e+00 1.000000e+00 5.179713e-01 9.993896e-01
182 1 1.050000e-05 2.500000e-06 0.000000e+00 1.000000e+00 5.359244e-01 -1.000610e+00
183 1 1.100000e-05 2.500000e-06 0.000000e+00 1.000000e+00 5.318263e-01 9.993896e-01
184 1 1.150000e-05 2.500000e-06 0.000000e+00 1.000000e+00 5.331106e-01 -1.000610e+00
185 1 1.200000e-05 2.500000e-06 0.000000e+00 1.000000e+00 5.547543e-01 9.993896e-01
186 1 1.250000e-05 2.500000e-06 0.000000e+00 1.000000e+00 5.356628e-01 -1.000610e+00
187 1 1.300000e-05 2.500000e-06 0.000000e+00 1.000000e+00 5.447655e-01 9.993896e-01
188 1 1.350000e-05 2.500000e-06 0.000000e+00 1.000000e+00 5.360568e-01 -1.000610e+00
189 1 1.400000e-05 2.500000e-06 0.000000e+00 1.000000e+00 5.333124e-01 9.993896e-01
190 1 1.450000e-05 2.500000e-06 0.000000e+00 1.000000e+00 5.258714e-01 -1.000610e+00
191 1 1.500000e-05 2.500000e-06 0.000000e+00 1.000000e+00 5.303329e-01 9.993896e-01
192 1 1.550000e-05 2.500000e-06 0.000000e+00 1.000000e+00 7.168433e-01 -1.000610e+00
193 1 0.000000e+00 3.000000e-06 0.000000e+00 1.000000e+00 7.330850e-01 -1.000610e+00
194 1 5.000000e-07 3.000000e-06 0.000000e+00 1.000000e+00 5.150706e-01 9.993896e-01
195 1 1.000000e-06 3.000000e-06 0.000000e+00 1.000000e+00 5.188631e-01 -1.000610e+00
196 1 1.500000e-06 3.000000e-06 0.000000e+00 1.000000e+00 5.206255e-01 9.993896e-01
197 1 2.000000e-06 3.000000e-06 0.000000e+00 1.000000e+00 5.067796e-01 -1.000610e+00
198 1 2.500000e-06 3.000000e-06 0.000000e+00 1.000000e+00 5.068260e-01 9.993896e-01
199 1 3.000000e-06 3.000000e-06 0.000000e+00 1.000000e+00 5.160997e-01 -1.000610e+00
200 1 3.500000e-06 3.000000e-06 0.000000e+00 1.000000e+00 5.186266e-01 9.993896e-01
201 1 4.000000e-06 3.000000e-06 0.000000e+00 1.000000e+00 5.142198e-01 -1.000610e+00
202 1 4.500000e-06 3.000000e-06 0.000000e+00 1.000000e+00 5.220942e-01 9.993896e-01
203 1 5.000000e-06 3.000000e-06 0.000000e+00 1.000000e+00 5.354316e-01 -1.000610e+00
204 1 5.500000e-06 3.000000e-06 0.000000e+00 1.000000e+00 5.289195e-01 9.993896e-01
205 1 6.000000e-06 3.000000e-06 0.000000e+00 1.000000e+00 5.276372e-01 -1.000610e+00
206 1 6.500000e-06 3.000000e-06 0.000000e+00 1.000000e+00 5.312368e-01 9.993896e-01
207 1 7.000000e-06 3.000000e-06 0.000000e+00 1.000000e+00 5.385057e-01 -1.000610e+00
208 1 7.500000e-06 3.000000e-06 0.000000e+00 1.000000e+00 5.162563e-01 9.993896e-01
209 1 8.000000e-06 3.000000e-06 0.000000e+00 1.000000e+00 5.016309e-01 -1.000610e+00
210 1 8.500000e-06 3.000000e-06 0.000000e+00 1.000000e+00 5.048971e-01 9.993896e-01
211 1 9.000000e-06 3.000000e-06 0.000000e+00 1.000000e+00 5.046085e-01 -1.000610e+00
212 1 9.500000e-06 3.000000e-06 0.000000e+00 1.000000e+00 5.236535e-01 9.993896e-01
213 1 1.000000e-05 3.000000e-06 0.000000e+00 1.000000e+00 5.046532e-01 -1.000610e+00
214 1 1.050000e-05 3.000000e-06 0.000000e+00 1.000000e+00 5.184338e-01 9.993896e-01
215 1 1.100000e-05 3.000000e-06 0.000000e+00 1.000000e+00 5.452818e-01 -1.000610e+00
216 1 1.150000e-05 3.000000e-06 0.000000e+00 1.000000e+00 5.499905e-01 9.993896e-01
217 1 1.200000e-05 3.000000e-06 0.000000e+00 1.000000e+00 5.226211e-01 -1.000610e+00
218 1 1.250000e-05 3.000000e-06 0.000000e+00 1.000000e+00 5.278938e-01 9.993896e-01
219 1 1.300000e-05 3.000000e-06 0.000000e+00 1.000000e+00 5.351333e-01 -1.000610e+00
220 1 1.350000e-05 3.000000e-06 0.000000e+00 1.000000e+00 5.332591e-01 9.993896e-01
221 1 1.400000e-05 3.000000e-06 0.000000e+00 1.000000e+00 5.300990e-01 -1.000610e+00
222 1 1.450000e-05 3.000000e-06 0.000000e+00 1.000000e+00 5.332908e-01 9.993896e-01
223 1 1.500000e-05 3.000000e-06 0.000000e+00 1.000000e+00 5.317451e-01 -1.000610e+00
224 1 1.550000e-05 3.000000e-06 0.000000e+00 1.000000e+00 7.439673e-01 9.993896e-01
225 1 0.000000e+00 3.500000e-06 0.000000e+00 1.000000e+00 7.271905e-01 9.993896e-01
226 1 5.000000e-07 3.500000e-06 0.000000e+00 1.000000e+00 5.142029e-01 -1.000610e+00
227 1 1.000000e-06 3.500000e-06 0.000000e+00 1.000000e+00 5.141854e-01 9.993896e-01
228 1 1.500000e-06 3.500000e-06 0.000000e+00 1.000000e+00 5.150249e-01 -1.000610e+00
229 1 2.000000e-06 3.500000e-06 0.000000e+00 1.000000e+00 5.106857e-01 9.993896e-01
230 1 2.500000e-06 3.500000e-06 0.000000e+00 1.000000e+00 5.095984e-01 -1.000610e+00
231 1 3.000000e-06 3.500000e-06 0.000000e+00 1.000000e+00 5.114013e-01 9.993896e-01
232 1 3.500000e-06 3.500000e-06 0.000000e+00 1.000000e+00 5.117095e-01 -1.000610e+00
233 1 4.000000e-06 3.500000e-06 0.000000e+00 1.000000e+00 5.061039e-01 9.993896e-01
234 1 4.500000e-06 3.500000e-06 0.000000e+00 1.000000e+00 4.834333e-01 -1.000610e+00
235 1 5.000000e-06 3.500000e-06 0.000000e+00 1.000000e+00 5.042086e-01 9.993896e-01
236 1 5.500000e-06 3.500000e-06 0.000000e+00 1.000000e+00 5.266346e-01 -1.000610e+00
237 1 6.000000e-06 3.500000e-06 0.000000e+00 1.000000e+00 5.150387e-01 9.993896e-01
238 1 6.500000e-06 3.500000e-06 0.000000e+00 1.000000e+00 5.150827e-01 -1.000610e+00
239 1 7.000000e-06 3.500000e-06 0.000000e+00 1.000000e+00 5.150337e-01 9.993896e-01
240 1 7.500000e-06 3.500000e-06 0.000000e+00 1.000000e+00 5.048353e-01 -1.000610e+00
241 1 8.000000e-06 3.500000e-06 0.000000e+00 1.000000e+00 5.159979e-01 9.993896e-01
242 1 8.500000e-06 3.500000e-06 0.000000e+00 1.000000e+00 5.031894e-01 -1.000610e+00
243 1 9.000000e-06 3.500000e-06 0.000000e+00 1.000000e+00 5.214059e-01 9.993896e-01
244 1 9.500000e-06 3.500000e-06 0.000000e+00 1.000000e+00 5.065056e-01 -1.000610e+00
245 1 1.000000e-05 3.500000e-06 0.000000e+00 1.000000e+00 5.029171e-01 9.993896e-01
246 1 1.050000e-05 3.500000e-06 0.000000e+00 1.000000e+00 4.907713e-01 -1.000610e+00
247 1 1.100000e-05 3.500000e-06 0.000000e+00 1.000000e+00 5.121790e-01 9.993896e-01
248 1 1.150000e-05 3.500000e-06 0.000000e+00 1.000000e+00 5.280786e-01 -1.000610e+00
249 1 1.200000e-05 3.500000e-06 0.000000e+00 1.000000e+00 5.141929e-01 9.993896e-01
250 1 1.250000e-05 3.500000e-06 0.000000e+00 1.000000e+00 5.178256e-01 -1.000610e+00
251 1 1.300000e-05 3.500000e-06 0.000000e+00 1.000000e+00 5.175308e-01 9.993896e-01
252 1 1.350000e-05 3.500000e-06 0.000000e+00 1.000000e+00 5.127512e-01 -1.000610e+00
253 1 1.400000e-05 3.500000e-06 0.000000e+00 1.000000e+00 5.052411e-01 9.993896e-01
254 1 1.450000e-05 3.500000e-06 0.000000e+00 1.000000e+00 5.064138e-01 -1.000610e+00
255 1 1.500000e-05 3.500000e-06 0.000000e+00 1.000000e+00 5.043607e-01 9.993896e-01
256 1 1.550000e-05 3.500000e-06 0.000000e+00 1.000000e+00 7.264095e-01 -1.000610e+00
257 1 0.000000e+00 4.000000e-06 0.000000e+00 1.000000e+00 7.284496e-01 -1.000610e+00
258 1 5.000000e-07 4.000000e-06 0.000000e+00 1.000000e+00 5.150624e-01 9.993896e-01
259 1 1.000000e-06 4.000000e-06 0.000000e+00 1.000000e+00 5.150445e-01 -1.000610e+00
260 1 1.500000e-06 4.000000e-06 0.000000e+00 1.000000e+00 5.167239e-01 9.993896e-01
261 1 2.000000e-06 4.000000e-06 0.000000e+00 1.000000e+00 5.144992e-01 -1.000610e+00
262 1 2.500000e-06 4.000000e-06 0.000000e+00 1.000000e+00 5.159826e-01 9.993896e-01
263 1 3.000000e-06 4.000000e-06 0.000000e+00 1.000000e+00 5.252587e-01 -1.000610e+00
264 1 3.500000e-06 4.000000e-06 0.000000e+00 1.000000e+00 5.273401e-01 9.993896e-01
265 1 4.000000e-06 4.000000e-06 0.000000e+00 1.000000e+00 5.216127e-01 -1.000610e+00
266 1 4.500000e-06 4.000000e-06 0.000000e+00 1.000000e+00 5.371645e-01 9.993896e-01
267 1 5.000000e-06 4.000000e-06 0.000000e+00 1.000000e+00 5.320001e-01 -1.000610e+00
268 1 5.500000e-06 4.000000e-06 0.000000e+00 1.000000e+00 5.263979e-01 9.993896e-01
269 1 6.000000e-06 4.000000e-06 0.000000e+00 1.000000e+00 5.282697e-01 -1.000610e+00
270 1 6.500000e-06 4.000000e-06 0.000000e+00 1.000000e+00 5.142111e-01 9.993896e-01
271 1 7.000000e-06 4.000000e-06 0.000000e+00 1.000000e+00 5.232035e-01 -1.000610e+00
272 1 7.500000e-06 4.000000e-06 0.000000e+00 1.000000e+00 5.250966e-01 9.993896e-01
273 1 8.000000e-06 4.000000e-06 0.000000e+00 1.000000e+00 5.223960e-01 -1.000610e+00
274 1 8.500000e-06 4.000000e-06 0.000000e+00 1.000000e+00 5.157825e-01 9.993896e-01
275 1 9.000000e-06 4.000000e-06 0.000000e+00 1.000000e+00 5.186263e-01 -1.000610e+00
276 1 9.500000e-06 4.000000e-06 0.000000e+00 1.000000e+00 5.142352e-01 9.993896e-01
277 1 1.000000e-05 4.000000e-06 0.000000e+00 1.000000e+00 5.142215e-01 -1.000610e+00
278 1 1.050000e-05 4.000000e-06 0.000000e+00 1.000000e+00 5.131064e-01 9.993896e-01
279 1 1.100000e-05 4.000000e-06 0.000000e+00 1.000000e+00 5.116100e-01 -1.000610e+00
280 1 1.150000e-05 4.000000e-06 0.000000e+00 1.000000e+00 5.157713e-01 9.993896e-01
281 1 1.200000e-05 4.000000e-06 0.000000e+00 1.000000e+00 5.223598e-01 -1.000610e+00
282 1 1.250000e-05 4.000000e-06 0.000000e+00 1.000000e+00 5.214689e-01 9.993896e-01
283 1 1.300000e-05 4.000000e-06 0.000000e+00 1.000000e+00 5.195742e-01 -1.000610e+00
284 1 1.350000e-05 4.000000e-06 0.000000e+00 1.000000e+00 5.152460e-01 9.993896e-01
285 1 1.400000e-05 4.000000e-06 0.000000e+00 1.000000e+00 5.181125e-01 -1.000610e+00
286 1 1.450000e-05 4.000000e-06 0.000000e+00 1.000000e+00 5.169951e-01 9.993896e-01
287 1 1.500000e-05 4.000000e-06 0.000000e+00 1.000000e+00 5.160870e-01 -1.000610e+00
288 1 1.550000e-05 4.000000e-06 0.000000e+00 1.000000e+00 7.298239e-01 9.993896e-01
289 1 0.000000e+00 4.500000e-06 0.000000e+00 1.000000e+00 7.239363e-01 9.993896e-01
290 1 5.000000e-07 4.500000e-06 0.000000e+00 1.000000e+00 5.151253e-01 -1.000610e+00
291 1 1.000000e-06 4.500000e-06 0.000000e+00 1.000000e+00 5.151062e-01 9.993896e-01
292 1 1.500000e-06 4.500000e-06 0.000000e+00 1.000000e+00 5.151220e-01 -1.000610e+00
293 1 2.000000e-06 4.500000e-06 0.000000e+00 1.000000e+00 5.171472e-01 9.993896e-01
294 1 2.500000e-06 4.500000e-06 0.000000e+00 1.000000e+00 5.125901e-01 -1.000610e+00
295 1 3.000000e-06 4.500000e-06 0.000000e+00 1.000000e+00 5.316073e-01 9.993896e-01
296 1 3.500000e-06 4.500000e-06 0.000000e+00 1.000000e+00 5.232300e-01 -1.000610e+00
297 1 4.000000e-06 4.500000e-06 0.000000e+00 1.000000e+00 5.218666e-01 9.993896e-01
298 1 4.500000e-06 4.500000e-06 0.000000e+00 1.000000e+00 5.051676e-01 -1.000610e+00
299 1 5.000000e-06 4.500000e-06 0.000000e+00 1.000000e+00 5.221301e-01 9.993896e-01
300 1 5.500000e-06 4.500000e-06 0.000000e+00 1.000000e+00 5.193705e-01 -1.000610e+00
301 1 6.000000e-06 4.500000e-06 0.000000e+00 1.000000e+00 5.130713e-01 9.993896e-01
302 1 6.500000e-06 4.500000e-06 0.000000e+00 1.000000e+00 5.159634e-01 -1.000610e+00
303 1 7.000000e-06 4.500000e-06 0.000000e+00 1.000000e+00 5.150184e-01 9.993896e-01
304 1 7.500000e-06 4.500000e-06 0.000000e+00 1.000000e+00 5.175367e-01 -1.000610e+00
305 1 8.000000e-06 4.500000e-06 0.000000e+00 1.000000e+00 5.213355e-01 9.993896e-01
306 1 8.500000e-06 4.500000e-06 0.000000e+00 1.000000e+00 5.203532e-01 -1.000610e+00
307 1 9.000000e-06 4.500000e-06 0.000000e+00 1.000000e+00 5.141839e-01 9.993896e-01
308 1 9.500000e-06 4.500000e-06 0.000000e+00 1.000000e+00 5.178235e-01 -1.000610e+00
309 1 1.000000e-05 4.500000e-06 0.000000e+00 1.000000e+00 5.116299e-01 9.993896e-01
310 1 1.050000e-05 4.500000e-06 0.000000e+00 1.000000e+00 5.175411e-01 -1.000610e+00
311 1 1.100000e-05 4.500000e-06 0.000000e+00 1.000000e+00 5.109138e-01 9.993896e-01
312 1 1.150000e-05 4.500000e-06 0.000000e+00 1.000000e+00 5.130657e-01 -1.000610e+00
313 1 1.200000e-05 4.500000e-06 0.000000e+00 1.000000e+00 5.150574e-01 9.993896e-01
314 1 1.250000e-05 4.500000e-06 0.000000e+00 1.000000e+00 5.203372e-01 -1.000610e+00
315 1 1.300000e-05 4.500000e-06 0.000000e+00 1.000000e+00 5.181111e-01 9.993896e-01
316 1 1.350000e-05 4.500000e-06 0.000000e+00 1.000000e+00 5.131152e-01 -1.000610e+00
317 1 1.400000e-05 4.500000e-06 0.000000e+00 1.000000e+00 5.063009e-01 9.993896e-01
318 1 1.450000e-05 4.500000e-06 0.000000e+00 1.000000e+00 5.121567e-01 -1.000610e+00
319 1 1.500000e-05 4.500000e-06 0.000000e+00 1.000000e+00 5.208867e-01 9.993896e-01
320 1 1.550000e-05 4.500000e-06 0.000000e+00 1.000000e+00 7.341809e-01 -1.000610e+00
321 1 0.000000e+00 5.000000e-06 0.000000e+00 1.000000e+00 7.284578e-01 -1.000610e+00
322 1 5.000000e-07 5.000000e-06 0.000000e+00 1.000000e+00 5.150250e-01 9.993896e-01
323 1 1.000000e-06 5.000000e-06 0.000000e+00 1.000000e+00 5.150407e-01 -1.000610e+00
324 1 1.500000e-06 5.000000e-06 0.000000e+00 1.000000e+00 5.131159e-01 9.993896e-01
325 1 2.000000e-06 5.000000e-06 0.000000e+00 1.000000e+00 5.134970e-01 -1.000610e+00
326 1 2.500000e-06 5.000000e-06 0.000000e+00 1.000000e+00 5.142571e-01 9.993896e-01
327 1 3.000000e-06 5.000000e-06 0.000000e+00 1.000000e+00 5.222152e-01 -1.000610e+00
328 1 3.500000e-06 5.000000e-06 0.000000e+00 1.000000e+00 5.268271e-01 9.993896e-01
329 1 4.000000e-06 5.000000e-06 0.000000e+00 1.000000e+00 5.273824e-01 -1.000610e+00
330 1 4.500000e-06 5.000000e-06 0.000000e+00 1.000000e+00 4.996964e-01 9.993896e-01
331 1 5.000000e-06 5.000000e-06 0.000000e+00 1.000000e+00 5.115020e-01 -1.000610e+00
332 1 5.500000e-06 5.000000e-06 0.000000e+00 1.000000e+00 5.214231e-01 9.993896e-01
333 1 6.000000e-06 5.000000e-06 0.000000e+00 1.000000e+00 5.164454e-01 -1.000610e+00
334 1 6.500000e-06 5.000000e-06 0.000000e+00 1.000000e+00 5.150378e-01 9.993896e-01
335 1 7.000000e-06 5.000000e-06 0.000000e+00 1.000000e+00 5.142310e-01 -1.000610e+00
336 1 7.500000e-06 5.000000e-06 0.000000e+00 1.000000e+00 5.150699e-01 9.993896e-01
337 1 8.000000e-06 5.000000e-06 0.000000e+00 1.000000e+00 5.195902e-01 -1.000610e+00
338 1 8.500000e-06 5.000000e-06 0.000000e+00 1.000000e+00 5.215052e-01 9.993896e-01
339 1 9.000000e-06 5.000000e-06 0.000000e+00 1.000000e+00 5.142192e-01 -1.000610e+00
340 1 9.500000e-06 5.000000e-06 0.000000e+00 1.000000e+00 5.214477e-01 9.993896e-01
341 1 1.000000e-05 5.000000e-06 0.000000e+00 1.000000e+00 5.195313e-01 -1.000610e+00
342 1 1.050000e-05 5.000000e-06 0.000000e+00 1.000000e+00 5.204198e-01 9.993896e-01
343 1 1.100000e-05 5.000000e-06 0.000000e+00 1.000000e+00 5.223701e-01 -1.000610e+00
344 1 1.150000e-05 5.000000e-06 0.000000e+00 1.000000e+00 5.152276e-01 9.993896e-01
345 1 1.200000e-05 5.000000e-06 0.000000e+00 1.000000e+00 5.142138e-01 -1.000610e+00
346 1 1.250000e-05 5.000000e-06 0.000000e+00 1.000000e+00 5.195595e-01 9.993896e-01
347 1 1.300000e-05 5.000000e-06 0.000000e+00 1.000000e+00 5.242160e-01 -1.000610e+00
348 1 1.350000e-05 5.000000e-06 0.000000e+00 1.000000e+00 5.031191e-01 9.993896e-01
349 1 1.400000e-05 5.000000e-06 0.000000e+00 1.000000e+00 4.991454e-01 -1.000610e+00
350 1 1.450000e-05 5.000000e-06 0.000000e+00 1.000000e+00 5.074073e-01 9.993896e-01
351 1 1.500000e-05 5.000000e-06 0.000000e+00 1.000000e+00 5.099950e-01 -1.000610e+00
352 1 1.550000e-05 5.000000e-06 0.000000e+00 1.000000e+00 7.219803e-01 9.993896e-01
353 1 0.000000e+00 5.500000e-06 0.000000e+00 1.000000e+00 7.210875e-01 9.993896e-01
354 1 5.000000e-07 5.500000e-06 0.000000e+00 1.000000e+00 5.071991e-01 -1.000610e+00