ITEM: TIMESTEP
24
ITEM: NUMBER OF ATOMS
16384
ITEM: BOX BOUNDS pp pp pp
0.0 1.600000e-05
0.0 1.600000e-05
0.0 8.000000e-06
ITEM: ATOMS id type x y z crack plastic psi
1 1 0.000000e+00 0.000000e+00 0.000000e+00 1.000000e+00 9.898369e-01 -1.000000e+00
2 1 5.000000e-07 0.000000e+00 0.000000e+00 1.000000e+00 8.121160e-01 1.000000e+00
3 1 1.000000e-06 0.000000e+00 0.000000e+00 1.000000e+00 8.109589e-01 -1.000000e+00
4 1 1.500000e-06 0.000000e+00 0.000000e+00 1.000000e+00 8.105411e-01 1.000000e+00
5 1 2.000000e-06 0.000000e+00 0.000000e+00 1.000000e+00 8.105384e-01 -1.000000e+00
6 1 2.500000e-06 0.000000e+00 0.000000e+00 1.000000e+00 8.103300e-01 1.000000e+00
7 1 3.000000e-06 0.000000e+00 0.000000e+00 1.000000e+00 8.107288e-01 -1.000000e+00
8 1 3.500000e-06 0.000000e+00 0.000000e+00 1.000000e+00 8.107276e-01 1.000000e+00
9 1 4.000000e-06 0.000000e+00 0.000000e+00 1.000000e+00 8.107265e-01 -1.000000e+00
10 1 4.500000e-06 0.000000e+00 0.000000e+00 1.000000e+00 8.101005e-01 1.000000e+00
11 1 5.000000e-06 0.000000e+00 0.000000e+00 1.000000e+00 8.104878e-01 -1.000000e+00
12 1 5.500000e-06 0.000000e+00 0.000000e+00 1.000000e+00 8.100278e-01 1.000000e+00
13 1 6.000000e-06 0.000000e+00 0.000000e+00 1.000000e+00 8.100202e-01 -1.000000e+00
14 1 6.500000e-06 0.000000e+00 0.000000e+00 1.000000e+00 8.107264e-01 1.000000e+00
15 1 7.000000e-06 0.000000e+00 0.000000e+00 1.000000e+00 8.113945e-01 -1.000000e+00
16 1 7.500000e-06 0.000000e+00 0.000000e+00 1.000000e+00 8.119466e-01 1.000000e+00
17 1 8.000000e-06 0.000000e+00 0.000000e+00 1.000000e+00 8.111595e-01 -1.000000e+00
18 1 8.500000e-06 0.000000e+00 0.000000e+00 1.000000e+00 8.108131e-01 1.000000e+00
19 1 9.000000e-06 0.000000e+00 0.000000e+00 1.000000e+00 8.114205e-01 -1.000000e+00
20 1 9.500000e-06 0.000000e+00 0.000000e+00 1.000000e+00 8.110545e-01 1.000000e+00
21 1 1.000000e-05 0.000000e+00 0.000000e+00 1.000000e+00 8.119526e-01 -1.000000e+00
22 1 1.050000e-05 0.000000e+00 0.000000e+00 1.000000e+00 8.116192e-01 1.000000e+00
23 1 1.100000e-05 0.000000e+00 0.000000e+00 1.000000e+00 8.101470e-01 -1.000000e+00
24 1 1.150000e-05 0.000000e+00 0.000000e+00 1.000000e+00 8.073031e-01 1.000000e+00
25 1 1.200000e-05 0.000000e+00 0.000000e+00 1.000000e+00 8.100158e-01 -1.000000e+00
26 1 1.250000e-05 0.000000e+00 0.000000e+00 1.000000e+00 8.113507e-01 1.000000e+00
27 1 1.300000e-05 0.000000e+00 0.000000e+00 1.000000e+00 8.116129e-01 -1.000000e+00
28 1 1.350000e-05 0.000000e+00 0.000000e+00 1.000000e+00 8.113177e-01 1.000000e+00
29 1 1.400000e-05 0.000000e+00 0.000000e+00 1.000000e+00 8.110846e-01 -1.000000e+00
30 1 1.450000e-05 0.000000e+00 0.000000e+00 1.000000e+00 8.102346e-01 1.000000e+00
31 1 1.500000e-05 0.000000e+00 0.000000e+00 1.000000e+00 8.114880e-01 -1.000000e+00
32 1 1.550000e-05 0.000000e+00 0.000000e+00 1.000000e+00 9.917374e-01 1.000000e+00
33 1 0.000000e+00 5.000000e-07 0.000000e+00 1.000000e+00 8.062483e-01 1.000000e+00
34 1 5.000000e-07 5.000000e-07 0.000000e+00 1.000000e+00 5.737401e-01 -1.000000e+00
35 1 1.000000e-06 5.000000e-07 0.000000e+00 1.000000e+00 5.723147e-01 1.000000e+00
36 1 1.500000e-06 5.000000e-07 0.000000e+00 1.000000e+00 5.725385e-01 -1.000000e+00
37 1 2.000000e-06 5.000000e-07 0.000000e+00 1.000000e+00 5.725107e-01 1.000000e+00
38 1 2.500000e-06 5.000000e-07 0.000000e+00 1.000000e+00 5.727627e-01 -1.000000e+00
39 1 3.000000e-06 5.000000e-07 0.000000e+00 1.000000e+00 5.722322e-01 1.000000e+00
40 1 3.500000e-06 5.000000e-07 0.000000e+00 1.000000e+00 5.728175e-01 -1.000000e+00
41 1 4.000000e-06 5.000000e-07 0.000000e+00 1.000000e+00 5.728581e-01 1.000000e+00
42 1 4.500000e-06 5.000000e-07 0.000000e+00 1.000000e+00 5.726071e-01 -1.000000e+00
43 1 5.000000e-06 5.000000e-07 0.000000e+00 1.000000e+00 5.720473e-01 1.000000e+00
44 1 5.500000e-06 5.000000e-07 0.000000e+00 1.000000e+00 5.710466e-01 -1.000000e+00
45 1 6.000000e-06 5.000000e-07 0.000000e+00 1.000000e+00 5.719459e-01 1.000000e+00
46 1 6.500000e-06 5.000000e-07 0.000000e+00 1.000000e+00 5.735037e-01 -1.000000e+00
47 1 7.000000e-06 5.000000e-07 0.000000e+00 1.000000e+00 5.737382e-01 1.000000e+00
48 1 7.500000e-06 5.000000e-07 0.000000e+00 1.000000e+00 5.760403e-01 -1.000000e+00
49 1 8.000000e-06 5.000000e-07 0.000000e+00 1.000000e+00 5.739220e-01 1.000000e+00
50 1 8.500000e-06 5.000000e-07 0.000000e+00 1.000000e+00 5.731020e-01 -1.000000e+00
51 1 9.000000e-06 5.000000e-07 0.000000e+00 1.000000e+00 5.726543e-01 1.000000e+00
52 1 9.500000e-06 5.000000e-07 0.000000e+00 1.000000e+00 5.746352e-01 -1.000000e+00
53 1 1.000000e-05 5.000000e-07 0.000000e+00 1.000000e+00 5.740962e-01 1.000000e+00
54 1 1.050000e-05 5.000000e-07 0.000000e+00 1.000000e+00 5.722170e-01 -1.000000e+00
55 1 1.100000e-05 5.000000e-07 0.000000e+00 1.000000e+00 5.746496e-01 1.000000e+00
56 1 1.150000e-05 5.000000e-07 0.000000e+00 1.000000e+00 5.745000e-01 -1.000000e+00
57 1 1.200000e-05 5.000000e-07 0.000000e+00 1.000000e+00 5.737516e-01 1.000000e+00
58 1 1.250000e-05 5.000000e-07 0.000000e+00 1.000000e+00 5.721327e-01 -1.000000e+00
59 1 1.300000e-05 5.000000e-07 0.000000e+00 1.000000e+00 5.731388e-01 1.000000e+00
60 1 1.350000e-05 5.000000e-07 0.000000e+00 1.000000e+00 5.727874e-01 -1.000000e+00
61 1 1.400000e-05 5.000000e-07 0.000000e+00 1.000000e+00 5.728935e-01 1.000000e+00
62 1 1.450000e-05 5.000000e-07 0.000000e+00 1.000000e+00 5.744082e-01 -1.000000e+00
63 1 1.500000e-05 5.000000e-07 0.000000e+00 1.000000e+00 5.747081e-01 1.000000e+00
64 1 1.550000e-05 5.000000e-07 0.000000e+00 1.000000e+00 8.091690e-01 -1.000000e+00
65 1 0.000000e+00 1.000000e-06 0.000000e+00 1.000000e+00 8.076804e-01 -1.000000e+00
66 1 5.000000e-07 1.000000e-06 0.000000e+00 1.000000e+00 5.745630e-01 1.000000e+00
67 1 1.000000e-06 1.000000e-06 0.000000e+00 1.000000e+00 5.725299e-01 -1.000000e+00
68 1 1.500000e-06 1.000000e-06 0.000000e+00 1.000000e+00 5.723148e-01 1.000000e+00
69 1 2.000000e-06 1.000000e-06 0.000000e+00 1.000000e+00 5.722141e-01 -1.000000e+00
70 1 2.500000e-06 1.000000e-06 0.000000e+00 1.000000e+00 5.722314e-01 1.000000e+00
71 1 3.000000e-06 1.000000e-06 0.000000e+00 1.000000e+00 5.717519e-01 -1.000000e+00
72 1 3.500000e-06 1.000000e-06 0.000000e+00 1.000000e+00 5.728592e-01 1.000000e+00
73 1 4.000000e-06 1.000000e-06 0.000000e+00 1.000000e+00 5.736954e-01 -1.000000e+00
74 1 4.500000e-06 1.000000e-06 0.000000e+00 1.000000e+00 5.745731e-01 1.000000e+00
75 1 5.000000e-06 1.000000e-06 0.000000e+00 1.000000e+00 5.743561e-01 -1.000000e+00
76 1 5.500000e-06 1.000000e-06 0.000000e+00 1.000000e+00 5.736756e-01 1.000000e+00
77 1 6.000000e-06 1.000000e-06 0.000000e+00 1.000000e+00 5.743572e-01 -1.000000e+00
78 1 6.500000e-06 1.000000e-06 0.000000e+00 1.000000e+00 5.723172e-01 1.000000e+00
79 1 7.000000e-06 1.000000e-06 0.000000e+00 1.000000e+00 5.718133e-01 -1.000000e+00
80 1 7.500000e-06 1.000000e-06 0.000000e+00 1.000000e+00 5.742726e-01 1.000000e+00
81 1 8.000000e-06 1.000000e-06 0.000000e+00 1.000000e+00 5.729925e-01 -1.000000e+00
82 1 8.500000e-06 1.000000e-06 0.000000e+00 1.000000e+00 5.730623e-01 1.000000e+00
83 1 9.000000e-06 1.000000e-06 0.000000e+00 1.000000e+00 5.746154e-01 -1.000000e+00
84 1 9.500000e-06 1.000000e-06 0.000000e+00 1.000000e+00 5.753812e-01 1.000000e+00
85 1 1.000000e-05 1.000000e-06 0.000000e+00 1.000000e+00 5.741334e-01 -1.000000e+00
86 1 1.050000e-05 1.000000e-06 0.000000e+00 1.000000e+00 5.730475e-01 1.000000e+00
87 1 1.100000e-05 1.000000e-06 0.000000e+00 1.000000e+00 5.746548e-01 -1.000000e+00
88 1 1.150000e-05 1.000000e-06 0.000000e+00 1.000000e+00 5.729302e-01 1.000000e+00
89 1 1.200000e-05 1.000000e-06 0.000000e+00 1.000000e+00 5.742904e-01 -1.000000e+00
90 1 1.250000e-05 1.000000e-06 0.000000e+00 1.000000e+00 5.734736e-01 1.000000e+00
91 1 1.300000e-05 1.000000e-06 0.000000e+00 1.000000e+00 5.733108e-01 -1.000000e+00
92 1 1.350000e-05 1.000000e-06 0.000000e+00 1.000000e+00 5.732763e-01 1.000000e+00
93 1 1.400000e-05 1.000000e-06 0.000000e+00 1.000000e+00 5.733000e-01 -1.000000e+00
94 1 1.450000e-05 1.000000e-06 0.000000e+00 1.000000e+00 5.737515e-01 1.000000e+00
95 1 1.500000e-05 1.000000e-06 0.000000e+00 1.000000e+00 5.746638e-01 -1.000000e+00
96 1 1.550000e-05 1.000000e-06 0.000000e+00 1.000000e+00 8.100346e-01 1.000000e+00
97 1 0.000000e+00 1.500000e-06 0.000000e+00 1.000000e+00 8.089383e-01 1.000000e+00
98 1 5.000000e-07 1.500000e-06 0.000000e+00 1.000000e+00 5.743096e-01 -1.000000e+00
99 1 1.000000e-06 1.500000e-06 0.000000e+00 1.000000e+00 5.729909e-01 1.000000e+00
100 1 1.500000e-06 1.500000e-06 0.000000e+00 1.000000e+00 5.736837e-01 -1.000000e+00
101 1 2.000000e-06 1.500000e-06 0.000000e+00 1.000000e+00 5.737415e-01 1.000000e+00
102 1 2.500000e-06 1.500000e-06 0.000000e+00 1.000000e+00 5.735042e-01 -1.000000e+00
103 1 3.000000e-06 1.500000e-06 0.000000e+00 1.000000e+00 5.732702e-01 1.000000e+00
104 1 3.500000e-06 1.500000e-06 0.000000e+00 1.000000e+00 5.732698e-01 -1.000000e+00
105 1 4.000000e-06 1.500000e-06 0.000000e+00 1.000000e+00 5.739710e-01 1.000000e+00
106 1 4.500000e-06 1.500000e-06 0.000000e+00 1.000000e+00 5.742357e-01 -1.000000e+00
107 1 5.000000e-06 1.500000e-06 0.000000e+00 1.000000e+00 5.742276e-01 1.000000e+00
108 1 5.500000e-06 1.500000e-06 0.000000e+00 1.000000e+00 5.740646e-01 -1.000000e+00
109 1 6.000000e-06 1.500000e-06 0.000000e+00 1.000000e+00 5.731458e-01 1.000000e+00
110 1 6.500000e-06 1.500000e-06 0.000000e+00 1.000000e+00 5.737718e-01 -1.000000e+00
111 1 7.000000e-06 1.500000e-06 0.000000e+00 1.000000e+00 5.738472e-01 1.000000e+00
112 1 7.500000e-06 1.500000e-06 0.000000e+00 1.000000e+00 5.735763e-01 -1.000000e+00
113 1 8.000000e-06 1.500000e-06 0.000000e+00 1.000000e+00 5.734809e-01 1.000000e+00
114 1 8.500000e-06 1.500000e-06 0.000000e+00 1.000000e+00 5.732386e-01 -1.000000e+00
115 1 9.000000e-06 1.500000e-06 0.000000e+00 1.000000e+00 5.742694e-01 1.000000e+00
116 1 9.500000e-06 1.500000e-06 0.000000e+00 1.000000e+00 5.743130e-01 -1.000000e+00
117 1 1.000000e-05 1.500000e-06 0.000000e+00 1.000000e+00 5.739604e-01 1.000000e+00
118 1 1.050000e-05 1.500000e-06 0.000000e+00 1.000000e+00 5.743136e-01 -1.000000e+00
119 1 1.100000e-05 1.500000e-06 0.000000e+00 1.000000e+00 5.744631e-01 1.000000e+00
120 1 1.150000e-05 1.500000e-06 0.000000e+00 1.000000e+00 5.740790e-01 -1.000000e+00
121 1 1.200000e-05 1.500000e-06 0.000000e+00 1.000000e+00 5.751818e-01 1.000000e+00
122 1 1.250000e-05 1.500000e-06 0.000000e+00 1.000000e+00 5.758806e-01 -1.000000e+00
123 1 1.300000e-05 1.500000e-06 0.000000e+00 1.000000e+00 5.754201e-01 1.000000e+00
124 1 1.350000e-05 1.500000e-06 0.000000e+00 1.000000e+00 5.749684e-01 -1.000000e+00
125 1 1.400000e-05 1.500000e-06 0.000000e+00 1.000000e+00 5.745679e-01 1.000000e+00
126 1 1.450000e-05 1.500000e-06 0.000000e+00 1.000000e+00 5.750539e-01 -1.000000e+00
127 1 1.500000e-05 1.500000e-06 0.000000e+00 1.000000e+00 5.740317e-01 1.000000e+00
128 1 1.550000e-05 1.500000e-06 0.000000e+00 1.000000e+00 8.104894e-01 -1.000000e+00
129 1 0.000000e+00 2.000000e-06 0.000000e+00 1.000000e+00 8.095817e-01 -1.000000e+00
130 1 5.000000e-07 2.000000e-06 0.000000e+00 1.000000e+00 5.734290e-01 1.000000e+00
131 1 1.000000e-06 2.000000e-06 0.000000e+00 1.000000e+00 5.738624e-01 -1.000000e+00
132 1 1.500000e-06 2.000000e-06 0.000000e+00 1.000000e+00 5.736176e-01 1.000000e+00
133 1 2.000000e-06 2.000000e-06 0.000000e+00 1.000000e+00 5.729437e-01 -1.000000e+00
134 1 2.500000e-06 2.000000e-06 0.000000e+00 1.000000e+00 5.733823e-01 1.000000e+00
135 1 3.000000e-06 2.000000e-06 0.000000e+00 1.000000e+00 5.737920e-01 -1.000000e+00
136 1 3.500000e-06 2.000000e-06 0.000000e+00 1.000000e+00 5.732715e-01 1.000000e+00
137 1 4.000000e-06 2.000000e-06 0.000000e+00 1.000000e+00 5.740858e-01 -1.000000e+00
138 1 4.500000e-06 2.000000e-06 0.000000e+00 1.000000e+00 5.740519e-01 1.000000e+00
139 1 5.000000e-06 2.000000e-06 0.000000e+00 1.000000e+00 5.743883e-01 -1.000000e+00
140 1 5.500000e-06 2.000000e-06 0.000000e+00 1.000000e+00 5.726203e-01 1.000000e+00
141 1 6.000000e-06 2.000000e-06 0.000000e+00 1.000000e+00 5.739120e-01 -1.000000e+00
142 1 6.500000e-06 2.000000e-06 0.000000e+00 1.000000e+00 5.728812e-01 1.000000e+00
143 1 7.000000e-06 2.000000e-06 0.000000e+00 1.000000e+00 5.729184e-01 -1.000000e+00
144 1 7.500000e-06 2.000000e-06 0.000000e+00 1.000000e+00 5.731741e-01 1.000000e+00
145 1 8.000000e-06 2.000000e-06 0.000000e+00 1.000000e+00 5.732563e-01 -1.000000e+00
146 1 8.500000e-06 2.000000e-06 0.000000e+00 1.000000e+00 5.737076e-01 1.000000e+00
147 1 9.000000e-06 2.000000e-06 0.000000e+00 1.000000e+00 5.734743e-01 -1.000000e+00
148 1 9.500000e-06 2.000000e-06 0.000000e+00 1.000000e+00 5.726805e-01 1.000000e+00
149 1 1.000000e-05 2.000000e-06 0.000000e+00 1.000000e+00 5.748590e-01 -1.000000e+00
150 1 1.050000e-05 2.000000e-06 0.000000e+00 1.000000e+00 5.734320e-01 1.000000e+00
151 1 1.100000e-05 2.000000e-06 0.000000e+00 1.000000e+00 5.734328e-01 -1.000000e+00
152 1 1.150000e-05 2.000000e-06 0.000000e+00 1.000000e+00 5.746201e-01 1.000000e+00
153 1 1.200000e-05 2.000000e-06 0.000000e+00 1.000000e+00 5.750469e-01 -1.000000e+00
154 1 1.250000e-05 2.000000e-06 0.000000e+00 1.000000e+00 5.748693e-01 1.000000e+00
155 1 1.300000e-05 2.000000e-06 0.000000e+00 1.000000e+00 5.733592e-01 -1.000000e+00
156 1 1.350000e-05 2.000000e-06 0.000000e+00 1.000000e+00 5.736818e-01 1.000000e+00
157 1 1.400000e-05 2.000000e-06 0.000000e+00 1.000000e+00 5.736680e-01 -1.000000e+00
158 1 1.450000e-05 2.000000e-06 0.000000e+00 1.000000e+00 5.733781e-01 1.000000e+00
159 1 1.500000e-05 2.000000e-06 0.000000e+00 1.000000e+00 5.733604e-01 -1.000000e+00
160 1 1.550000e-05 2.000000e-06 0.000000e+00 1.000000e+00 8.103766e-01 1.000000e+00
161 1 0.000000e+00 2.500000e-06 0.000000e+00 1.000000e+00 8.101343e-01 1.000000e+00
162 1 5.000000e-07 2.500000e-06 0.000000e+00 1.000000e+00 5.740469e-01 -1.000000e+00
163 1 1.000000e-06 2.500000e-06 0.000000e+00 1.000000e+00 5.739789e-01 1.000000e+00
164 1 1.500000e-06 2.500000e-06 0.000000e+00 1.000000e+00 5.740049e-01 -1.000000e+00
165 1 2.000000e-06 2.500000e-06 0.000000e+00 1.000000e+00 5.735161e-01 1.000000e+00
166 1 2.500000e-06 2.500000e-06 0.000000e+00 1.000000e+00 5.728230e-01 -1.000000e+00
167 1 3.000000e-06 2.500000e-06 0.000000e+00 1.000000e+00 5.734287e-01 1.000000e+00
168 1 3.500000e-06 2.500000e-06 0.000000e+00 1.000000e+00 5.733248e-01 -1.000000e+00
169 1 4.000000e-06 2.500000e-06 0.000000e+00 1.000000e+00 5.737793e-01 1.000000e+00
170 1 4.500000e-06 2.500000e-06 0.000000e+00 1.000000e+00 5.737169e-01 -1.000000e+00
171 1 5.000000e-06 2.500000e-06 0.000000e+00 1.000000e+00 5.739159e-01 1.000000e+00
172 1 5.500000e-06 2.500000e-06 0.000000e+00 1.000000e+00 5.741841e-01 -1.000000e+00
173 1 6.000000e-06 2.500000e-06 0.000000e+00 1.000000e+00 5.740673e-01 1.000000e+00
174 1 6.500000e-06 2.500000e-06 0.000000e+00 1.000000e+00 5.741067e-01 -1.000000e+00
175 1 7.000000e-06 2.500000e-06 0.000000e+00 1.000000e+00 5.737991e-01 1.000000e+00
176 1 7.500000e-06 2.500000e-06 0.000000e+00 1.000000e+00 5.742642e-01 -1.000000e+00
177 1 8.000000e-06 2.500000e-06 0.000000e+00 1.000000e+00 5.743733e-01 1.000000e+00
178 1 8.500000e-06 2.500000e-06 0.000000e+00 1.000000e+00 5.744984e-01 -1.000000e+00
179 1 9.000000e-06 2.500000e-06 0.000000e+00 1.000000e+00 5.740100e-01 1.000000e+00
180 1 9.500000e-06 2.500000e-06 0.000000e+00 1.000000e+00 5.745628e-01 -1.000000e+00
181 1 1.000000e-05 2.500000e-06 0.000000e+00 1.000000e+00 5.735137e-01 1.000000e+00
182 1 1.050000e-05 2.500000e-06 0.000000e+00 1.000000e+00 5.746737e-01 -1.000000e+00
183 1 1.100000e-05 2.500000e-06 0.000000e+00 1.000000e+00 5.744089e-01 1.000000e+00
184 1 1.150000e-05 2.500000e-06 0.000000e+00 1.000000e+00 5.744919e-01 -1.000000e+00
185 1 1.200000e-05 2.500000e-06 0.000000e+00 1.000000e+00 5.758903e-01 1.000000e+00
186 1 1.250000e-05 2.500000e-06 0.000000e+00 1.000000e+00 5.746568e-01 -1.000000e+00
187 1 1.300000e-05 2.500000e-06 0.000000e+00 1.000000e+00 5.752449e-01 1.000000e+00
188 1 1.350000e-05 2.500000e-06 0.000000e+00 1.000000e+00 5.746823e-01 -1.000000e+00
189 1 1.400000e-05 2.500000e-06 0.000000e+00 1.000000e+00 5.745049e-01 1.000000e+00
190 1 1.450000e-05 2.500000e-06 0.000000e+00 1.000000e+00 5.740242e-01 -1.000000e+00
191 1 1.500000e-05 2.500000e-06 0.000000e+00 1.000000e+00 5.743124e-01 1.000000e+00
192 1 1.550000e-05 2.500000e-06 0.000000e+00 1.000000e+00 8.100579e-01 -1.000000e+00
193 1 0.000000e+00 3.000000e-06 0.000000e+00 1.000000e+00 8.111073e-01 -1.000000e+00
194 1 5.000000e-07 3.000000e-06 0.000000e+00 1.000000e+00 5.733263e-01 1.000000e+00
195 1 1.000000e-06 3.000000e-06 0.000000e+00 1.000000e+00 5.735714e-01 -1.000000e+00
196 1 1.500000e-06 3.000000e-06 0.000000e+00 1.000000e+00 5.736852e-01 1.000000e+00
197 1 2.000000e-06 3.000000e-06 0.000000e+00 1.000000e+00 5.727906e-01 -1.000000e+00
198 1 2.500000e-06 3.000000e-06 0.000000e+00 1.000000e+00 5.727936e-01 1.000000e+00
199 1 3.000000e-06 3.000000e-06 0.000000e+00 1.000000e+00 5.733928e-01 -1.000000e+00
200 1 3.500000e-06 3.000000e-06 0.000000e+00 1.000000e+00 5.735561e-01 1.000000e+00
201 1 4.000000e-06 3.000000e-06 0.000000e+00 1.000000e+00 5.732714e-01 -1.000000e+00
202 1 4.500000e-06 3.000000e-06 0.000000e+00 1.000000e+00 5.737801e-01 1.000000e+00
203 1 5.000000e-06 3.000000e-06 0.000000e+00 1.000000e+00 5.746419e-01 -1.000000e+00
204 1 5.500000e-06 3.000000e-06 0.000000e+00 1.000000e+00 5.742211e-01 1.000000e+00
205 1 6.000000e-06 3.000000e-06 0.000000e+00 1.000000e+00 5.741383e-01 -1.000000e+00
206 1 6.500000e-06 3.000000e-06 0.000000e+00 1.000000e+00 5.743708e-01 1.000000e+00
207 1 7.000000e-06 3.000000e-06 0.000000e+00 1.000000e+00 5.748405e-01 -1.000000e+00
208 1 7.500000e-06 3.000000e-06 0.000000e+00 1.000000e+00 5.734029e-01 1.000000e+00
209 1 8.000000e-06 3.000000e-06 0.000000e+00 1.000000e+00 5.724580e-01 -1.000000e+00
210 1 8.500000e-06 3.000000e-06 0.000000e+00 1.000000e+00 5.726690e-01 1.000000e+00
211 1 9.000000e-06 3.000000e-06 0.000000e+00 1.000000e+00 5.726504e-01 -1.000000e+00
212 1 9.500000e-06 3.000000e-06 0.000000e+00 1.000000e+00 5.738809e-01 1.000000e+00
213 1 1.000000e-05 3.000000e-06 0.000000e+00 1.000000e+00 5.726533e-01 -1.000000e+00
214 1 1.050000e-05 3.000000e-06 0.000000e+00 1.000000e+00 5.735436e-01 1.000000e+00
215 1 1.100000e-05 3.000000e-06 0.000000e+00 1.000000e+00 5.752783e-01 -1.000000e+00
216 1 1.150000e-05 3.000000e-06 0.000000e+00 1.000000e+00 5.755825e-01 1.000000e+00
217 1 1.200000e-05 3.000000e-06 0.000000e+00 1.000000e+00 5.738142e-01 -1.000000e+00
218 1 1.250000e-05 3.000000e-06 0.000000e+00 1.000000e+00 5.741548e-01 1.000000e+00
219 1 1.300000e-05 3.000000e-06 0.000000e+00 1.000000e+00 5.746226e-01 -1.000000e+00
220 1 1.350000e-05 3.000000e-06 0.000000e+00 1.000000e+00 5.745015e-01 1.000000e+00
221 1 1.400000e-05 3.000000e-06 0.000000e+00 1.000000e+00 5.742973e-01 -1.000000e+00
222 1 1.450000e-05 3.000000e-06 0.000000e+00 1.000000e+00 5.745035e-01 1.000000e+00
223 1 1.500000e-05 3.000000e-06 0.000000e+00 1.000000e+00 5.744037e-01 -1.000000e+00
224 1 1.550000e-05 3.000000e-06 0.000000e+00 1.000000e+00 8.118104e-01 1.000000e+00
225 1 0.000000e+00 3.500000e-06 0.000000e+00 1.000000e+00 8.107264e-01 1.000000e+00
226 1 5.000000e-07 3.500000e-06 0.000000e+00 1.000000e+00 5.732703e-01 -1.000000e+00
227 1 1.000000e-06 3.500000e-06 0.000000e+00 1.000000e+00 5.732691e-01 1.000000e+00
228 1 1.500000e-06 3.500000e-06 0.000000e+00 1.000000e+00 5.733234e-01 -1.000000e+00
229 1 2.000000e-06 3.500000e-06 0.000000e+00 1.000000e+00 5.730430e-01 1.000000e+00
230 1 2.500000e-06 3.500000e-06 0.000000e+00 1.000000e+00 5.729728e-01 -1.000000e+00
231 1 3.000000e-06 3.500000e-06 0.000000e+00 1.000000e+00 5.730893e-01 1.000000e+00
232 1 3.500000e-06 3.500000e-06 0.000000e+00 1.000000e+00 5.731092e-01 -1.000000e+00
233 1 4.000000e-06 3.500000e-06 0.000000e+00 1.000000e+00 5.727470e-01 1.000000e+00
234 1 4.500000e-06 3.500000e-06 0.000000e+00 1.000000e+00 5.712822e-01 -1.000000e+00
235 1 5.000000e-06 3.500000e-06 0.000000e+00 1.000000e+00 5.726245e-01 1.000000e+00
236 1 5.500000e-06 3.500000e-06 0.000000e+00 1.000000e+00 5.740735e-01 -1.000000e+00
237 1 6.000000e-06 3.500000e-06 0.000000e+00 1.000000e+00 5.733243e-01 1.000000e+00
238 1 6.500000e-06 3.500000e-06 0.000000e+00 1.000000e+00 5.733271e-01 -1.000000e+00
239 1 7.000000e-06 3.500000e-06 0.000000e+00 1.000000e+00 5.733239e-01 1.000000e+00
240 1 7.500000e-06 3.500000e-06 0.000000e+00 1.000000e+00 5.726650e-01 -1.000000e+00
241 1 8.000000e-06 3.500000e-06 0.000000e+00 1.000000e+00 5.733862e-01 1.000000e+00
242 1 8.500000e-06 3.500000e-06 0.000000e+00 1.000000e+00 5.725587e-01 -1.000000e+00
243 1 9.000000e-06 3.500000e-06 0.000000e+00 1.000000e+00 5.737357e-01 1.000000e+00
244 1 9.500000e-06 3.500000e-06 0.000000e+00 1.000000e+00 5.727729e-01 -1.000000e+00
245 1 1.000000e-05 3.500000e-06 0.000000e+00 1.000000e+00 5.725411e-01 1.000000e+00
246 1 1.050000e-05 3.500000e-06 0.000000e+00 1.000000e+00 5.717563e-01 -1.000000e+00
247 1 1.100000e-05 3.500000e-06 0.000000e+00 1.000000e+00 5.731395e-01 1.000000e+00
248 1 1.150000e-05 3.500000e-06 0.000000e+00 1.000000e+00 5.741668e-01 -1.000000e+00
249 1 1.200000e-05 3.500000e-06 0.000000e+00 1.000000e+00 5.732696e-01 1.000000e+00
250 1 1.250000e-05 3.500000e-06 0.000000e+00 1.000000e+00 5.735043e-01 -1.000000e+00
251 1 1.300000e-05 3.500000e-06 0.000000e+00 1.000000e+00 5.734853e-01 1.000000e+00
252 1 1.350000e-05 3.500000e-06 0.000000e+00 1.000000e+00 5.731765e-01 -1.000000e+00
253 1 1.400000e-05 3.500000e-06 0.000000e+00 1.000000e+00 5.726912e-01 1.000000e+00
254 1 1.450000e-05 3.500000e-06 0.000000e+00 1.000000e+00 5.727670e-01 -1.000000e+00
255 1 1.500000e-05 3.500000e-06 0.000000e+00 1.000000e+00 5.726344e-01 1.000000e+00
256 1 1.550000e-05 3.500000e-06 0.000000e+00 1.000000e+00 8.106760e-01 -1.000000e+00
257 1 0.000000e+00 4.000000e-06 0.000000e+00 1.000000e+00 8.108078e-01 -1.000000e+00
258 1 5.000000e-07 4.000000e-06 0.000000e+00 1.000000e+00 5.733258e-01 1.000000e+00
259 1 1.000000e-06 4.000000e-06 0.000000e+00 1.000000e+00 5.733246e-01 -1.000000e+00
260 1 1.500000e-06 4.000000e-06 0.000000e+00 1.000000e+00 5.734331e-01 1.000000e+00
261 1 2.000000e-06 4.000000e-06 0.000000e+00 1.000000e+00 5.732894e-01 -1.000000e+00
262 1 2.500000e-06 4.000000e-06 0.000000e+00 1.000000e+00 5.733853e-01 1.000000e+00
263 1 3.000000e-06 4.000000e-06 0.000000e+00 1.000000e+00 5.739846e-01 -1.000000e+00
264 1 3.500000e-06 4.000000e-06 0.000000e+00 1.000000e+00 5.741191e-01 1.000000e+00
265 1 4.000000e-06 4.000000e-06 0.000000e+00 1.000000e+00 5.737490e-01 -1.000000e+00
266 1 4.500000e-06 4.000000e-06 0.000000e+00 1.000000e+00 5.747538e-01 1.000000e+00
267 1 5.000000e-06 4.000000e-06 0.000000e+00 1.000000e+00 5.744202e-01 -1.000000e+00
268 1 5.500000e-06 4.000000e-06 0.000000e+00 1.000000e+00 5.740582e-01 1.000000e+00
269 1 6.000000e-06 4.000000e-06 0.000000e+00 1.000000e+00 5.741791e-01 -1.000000e+00
270 1 6.500000e-06 4.000000e-06 0.000000e+00 1.000000e+00 5.732708e-01 1.000000e+00
271 1 7.000000e-06 4.000000e-06 0.000000e+00 1.000000e+00 5.738518e-01 -1.000000e+00
272 1 7.500000e-06 4.000000e-06 0.000000e+00 1.000000e+00 5.739741e-01 1.000000e+00
273 1 8.000000e-06 4.000000e-06 0.000000e+00 1.000000e+00 5.737996e-01 -1.000000e+00
274 1 8.500000e-06 4.000000e-06 0.000000e+00 1.000000e+00 5.733723e-01 1.000000e+00
275 1 9.000000e-06 4.000000e-06 0.000000e+00 1.000000e+00 5.735561e-01 -1.000000e+00
276 1 9.500000e-06 4.000000e-06 0.000000e+00 1.000000e+00 5.732724e-01 1.000000e+00
277 1 1.000000e-05 4.000000e-06 0.000000e+00 1.000000e+00 5.732715e-01 -1.000000e+00
278 1 1.050000e-05 4.000000e-06 0.000000e+00 1.000000e+00 5.731994e-01 1.000000e+00
279 1 1.100000e-05 4.000000e-06 0.000000e+00 1.000000e+00 5.731027e-01 -1.000000e+00
280 1 1.150000e-05 4.000000e-06 0.000000e+00 1.000000e+00 5.733716e-01 1.000000e+00
281 1 1.200000e-05 4.000000e-06 0.000000e+00 1.000000e+00 5.737973e-01 -1.000000e+00
282 1 1.250000e-05 4.000000e-06 0.000000e+00 1.000000e+00 5.737397e-01 1.000000e+00
283 1 1.300000e-05 4.000000e-06 0.000000e+00 1.000000e+00 5.736173e-01 -1.000000e+00
284 1 1.350000e-05 4.000000e-06 0.000000e+00 1.000000e+00 5.733377e-01 1.000000e+00
285 1 1.400000e-05 4.000000e-06 0.000000e+00 1.000000e+00 5.735229e-01 -1.000000e+00
286 1 1.450000e-05 4.000000e-06 0.000000e+00 1.000000e+00 5.734507e-01 1.000000e+00
287 1 1.500000e-05 4.000000e-06 0.000000e+00 1.000000e+00 5.733920e-01 -1.000000e+00
288 1 1.550000e-05 4.000000e-06 0.000000e+00 1.000000e+00 8.108966e-01 1.000000e+00
289 1 0.000000e+00 4.500000e-06 0.000000e+00 1.000000e+00 8.105162e-01 1.000000e+00
290 1 5.000000e-07 4.500000e-06 0.000000e+00 1.000000e+00 5.733299e-01 -1.000000e+00
291 1 1.000000e-06 4.500000e-06 0.000000e+00 1.000000e+00 5.733286e-01 1.000000e+00
292 1 1.500000e-06 4.500000e-06 0.000000e+00 1.000000e+00 5.733296e-01 -1.000000e+00
293 1 2.000000e-06 4.500000e-06 0.000000e+00 1.000000e+00 5.734605e-01 1.000000e+00
294 1 2.500000e-06 4.500000e-06 0.000000e+00 1.000000e+00 5.731661e-01 -1.000000e+00
295 1 3.000000e-06 4.500000e-06 0.000000e+00 1.000000e+00 5.743948e-01 1.000000e+00
296 1 3.500000e-06 4.500000e-06 0.000000e+00 1.000000e+00 5.738535e-01 -1.000000e+00
297 1 4.000000e-06 4.500000e-06 0.000000e+00 1.000000e+00 5.737654e-01 1.000000e+00
298 1 4.500000e-06 4.500000e-06 0.000000e+00 1.000000e+00 5.726865e-01 -1.000000e+00
299 1 5.000000e-06 4.500000e-06 0.000000e+00 1.000000e+00 5.737824e-01 1.000000e+00
300 1 5.500000e-06 4.500000e-06 0.000000e+00 1.000000e+00 5.736041e-01 -1.000000e+00
301 1 6.000000e-06 4.500000e-06 0.000000e+00 1.000000e+00 5.731972e-01 1.000000e+00
302 1 6.500000e-06 4.500000e-06 0.000000e+00 1.000000e+00 5.733840e-01 -1.000000e+00
303 1 7.000000e-06 4.500000e-06 0.000000e+00 1.000000e+00 5.733230e-01 1.000000e+00
304 1 7.500000e-06 4.500000e-06 0.000000e+00 1.000000e+00 5.734857e-01 -1.000000e+00
305 1 8.000000e-06 4.500000e-06 0.000000e+00 1.000000e+00 5.737311e-01 1.000000e+00
306 1 8.500000e-06 4.500000e-06 0.000000e+00 1.000000e+00 5.736676e-01 -1.000000e+00
307 1 9.000000e-06 4.500000e-06 0.000000e+00 1.000000e+00 5.732690e-01 1.000000e+00
308 1 9.500000e-06 4.500000e-06 0.000000e+00 1.000000e+00 5.735042e-01 -1.000000e+00
309 1 1.000000e-05 4.500000e-06 0.000000e+00 1.000000e+00 5.731040e-01 1.000000e+00
310 1 1.050000e-05 4.500000e-06 0.000000e+00 1.000000e+00 5.734859e-01 -1.000000e+00
311 1 1.100000e-05 4.500000e-06 0.000000e+00 1.000000e+00 5.730578e-01 1.000000e+00
312 1 1.150000e-05 4.500000e-06 0.000000e+00 1.000000e+00 5.731968e-01 -1.000000e+00
313 1 1.200000e-05 4.500000e-06 0.000000e+00 1.000000e+00 5.733255e-01 1.000000e+00
314 1 1.250000e-05 4.500000e-06 0.000000e+00 1.000000e+00 5.736666e-01 -1.000000e+00
315 1 1.300000e-05 4.500000e-06 0.000000e+00 1.000000e+00 5.735228e-01 1.000000e+00
316 1 1.350000e-05 4.500000e-06 0.000000e+00 1.000000e+00 5.732000e-01 -1.000000e+00
317 1 1.400000e-05 4.500000e-06 0.000000e+00 1.000000e+00 5.727597e-01 1.000000e+00
318 1 1.450000e-05 4.500000e-06 0.000000e+00 1.000000e+00 5.731381e-01 -1.000000e+00
319 1 1.500000e-05 4.500000e-06 0.000000e+00 1.000000e+00 5.737021e-01 1.000000e+00
320 1 1.550000e-05 4.500000e-06 0.000000e+00 1.000000e+00 8.111781e-01 -1.000000e+00
321 1 0.000000e+00 5.000000e-06 0.000000e+00 1.000000e+00 8.108083e-01 -1.000000e+00
322 1 5.000000e-07 5.000000e-06 0.000000e+00 1.000000e+00 5.733234e-01 1.000000e+00
323 1 1.000000e-06 5.000000e-06 0.000000e+00 1.000000e+00 5.733244e-01 -1.000000e+00
324 1 1.500000e-06 5.000000e-06 0.000000e+00 1.000000e+00 5.732000e-01 1.000000e+00
325 1 2.000000e-06 5.000000e-06 0.000000e+00 1.000000e+00 5.732247e-01 -1.000000e+00
326 1 2.500000e-06 5.000000e-06 0.000000e+00 1.000000e+00 5.732738e-01 1.000000e+00
327 1 3.000000e-06 5.000000e-06 0.000000e+00 1.000000e+00 5.737879e-01 -1.000000e+00
328 1 3.500000e-06 5.000000e-06 0.000000e+00 1.000000e+00 5.740859e-01 1.000000e+00
329 1 4.000000e-06 5.000000e-06 0.000000e+00 1.000000e+00 5.741218e-01 -1.000000e+00
330 1 4.500000e-06 5.000000e-06 0.000000e+00 1.000000e+00 5.723330e-01 1.000000e+00
331 1 5.000000e-06 5.000000e-06 0.000000e+00 1.000000e+00 5.730958e-01 -1.000000e+00
332 1 5.500000e-06 5.000000e-06 0.000000e+00 1.000000e+00 5.737368e-01 1.000000e+00
333 1 6.000000e-06 5.000000e-06 0.000000e+00 1.000000e+00 5.734152e-01 -1.000000e+00
334 1 6.500000e-06 5.000000e-06 0.000000e+00 1.000000e+00 5.733242e-01 1.000000e+00
335 1 7.000000e-06 5.000000e-06 0.000000e+00 1.000000e+00 5.732721e-01 -1.000000e+00
336 1 7.500000e-06 5.000000e-06 0.000000e+00 1.000000e+00 5.733263e-01 1.000000e+00
337 1 8.000000e-06 5.000000e-06 0.000000e+00 1.000000e+00 5.736183e-01 -1.000000e+00
338 1 8.500000e-06 5.000000e-06 0.000000e+00 1.000000e+00 5.737421e-01 1.000000e+00
339 1 9.000000e-06 5.000000e-06 0.000000e+00 1.000000e+00 5.732713e-01 -1.000000e+00
340 1 9.500000e-06 5.000000e-06 0.000000e+00 1.000000e+00 5.737384e-01 1.000000e+00
341 1 1.000000e-05 5.000000e-06 0.000000e+00 1.000000e+00 5.736145e-01 -1.000000e+00
342 1 1.050000e-05 5.000000e-06 0.000000e+00 1.000000e+00 5.736719e-01 1.000000e+00
343 1 1.100000e-05 5.000000e-06 0.000000e+00 1.000000e+00 5.737980e-01 -1.000000e+00
344 1 1.150000e-05 5.000000e-06 0.000000e+00 1.000000e+00 5.733365e-01 1.000000e+00
345 1 1.200000e-05 5.000000e-06 0.000000e+00 1.000000e+00 5.732710e-01 -1.000000e+00
346 1 1.250000e-05 5.000000e-06 0.000000e+00 1.000000e+00 5.736164e-01 1.000000e+00
347 1 1.300000e-05 5.000000e-06 0.000000e+00 1.000000e+00 5.739172e-01 -1.000000e+00
348 1 1.350000e-05 5.000000e-06 0.000000e+00 1.000000e+00 5.725541e-01 1.000000e+00
349 1 1.400000e-05 5.000000e-06 0.000000e+00 1.000000e+00 5.722974e-01 -1.000000e+00
350 1 1.450000e-05 5.000000e-06 0.000000e+00 1.000000e+00 5.728312e-01 1.000000e+00
351 1 1.500000e-05 5.000000e-06 0.000000e+00 1.000000e+00 5.729984e-01 -1.000000e+00
352 1 1.550000e-05 5.000000e-06 0.000000e+00 1.000000e+00 8.103898e-01 1.000000e+00
353 1 0.000000e+00 5.500000e-06 0.000000e+00 1.000000e+00 8.103321e-01 1.000000e+00
354 1 5.000000e-07 5.500000e-06 0.000000e+00 1.000000e+00 5.728177e-01 -1.000000e+00