ITEM: TIMESTEP
5
ITEM: NUMBER OF ATOMS
16384
ITEM: BOX BOUNDS pp pp pp
0.0 1.600000e-05
0.0 1.600000e-05
0.0 8.000000e-06
ITEM: ATOMS id type x y z crack plastic psi
1 1 0.000000e+00 0.000000e+00 0.000000e+00 1.000000e+00 5.156256e-01 9.996338e-01
2 1 5.000000e-07 0.000000e+00 0.000000e+00 1.000000e+00 5.648211e-01 9.996338e-01
3 1 1.000000e-06 0.000000e+00 0.000000e+00 1.000000e+00 5.130266e-01 -1.000366e+00
4 1 1.500000e-06 0.000000e+00 0.000000e+00 1.000000e+00 4.901313e-01 9.996338e-01
5 1 2.000000e-06 0.000000e+00 0.000000e+00 1.000000e+00 4.899869e-01 -1.000366e+00
6 1 2.500000e-06 0.000000e+00 0.000000e+00 1.000000e+00 4.785631e-01 9.996338e-01
7 1 3.000000e-06 0.000000e+00 0.000000e+00 1.000000e+00 5.004189e-01 -1.000366e+00
8 1 3.500000e-06 0.000000e+00 0.000000e+00 1.000000e+00 5.003519e-01 9.996338e-01
9 1 4.000000e-06 0.000000e+00 0.000000e+00 1.000000e+00 5.002912e-01 -1.000366e+00
10 1 4.500000e-06 0.000000e+00 0.000000e+00 1.000000e+00 4.659907e-01 9.996338e-01
11 1 5.000000e-06 0.000000e+00 0.000000e+00 1.000000e+00 4.872099e-01 -1.000366e+00
12 1 5.500000e-06 0.000000e+00 0.000000e+00 1.000000e+00 4.620026e-01 9.996338e-01
13 1 6.000000e-06 0.000000e+00 0.000000e+00 1.000000e+00 4.615882e-01 -1.000366e+00
14 1 6.500000e-06 0.000000e+00 0.000000e+00 1.000000e+00 5.002903e-01 9.996338e-01
15 1 7.000000e-06 0.000000e+00 0.000000e+00 1.000000e+00 5.368984e-01 -1.000366e+00
16 1 7.500000e-06 0.000000e+00 0.000000e+00 1.000000e+00 5.234884e-01 9.996338e-01
17 1 8.000000e-06 0.000000e+00 0.000000e+00 1.000000e+00 4.999865e-01 9.996338e-01
18 1 8.500000e-06 0.000000e+00 0.000000e+00 1.000000e+00 5.074176e-01 -1.000366e+00
19 1 9.000000e-06 0.000000e+00 0.000000e+00 1.000000e+00 4.955515e-01 9.996338e-01
20 1 9.500000e-06 0.000000e+00 0.000000e+00 1.000000e+00 4.849457e-01 -1.000366e+00
21 1 1.000000e-05 0.000000e+00 0.000000e+00 1.000000e+00 5.304608e-01 9.996338e-01
22 1 1.050000e-05 0.000000e+00 0.000000e+00 1.000000e+00 5.080759e-01 -1.000366e+00
23 1 1.100000e-05 0.000000e+00 0.000000e+00 1.000000e+00 5.432830e-01 9.996338e-01
24 1 1.150000e-05 0.000000e+00 0.000000e+00 1.000000e+00 5.434121e-01 -1.000366e+00
25 1 1.200000e-05 0.000000e+00 0.000000e+00 1.000000e+00 5.069672e-01 9.996338e-01
26 1 1.250000e-05 0.000000e+00 0.000000e+00 1.000000e+00 4.974789e-01 -1.000366e+00
27 1 1.300000e-05 0.000000e+00 0.000000e+00 1.000000e+00 5.155492e-01 9.996338e-01
28 1 1.350000e-05 0.000000e+00 0.000000e+00 1.000000e+00 5.027038e-01 -1.000366e+00
29 1 1.400000e-05 0.000000e+00 0.000000e+00 1.000000e+00 4.929291e-01 9.996338e-01
30 1 1.450000e-05 0.000000e+00 0.000000e+00 1.000000e+00 4.899191e-01 -1.000366e+00
31 1 1.500000e-05 0.000000e+00 0.000000e+00 1.000000e+00 5.024533e-01 9.996338e-01
32 1 1.550000e-05 0.000000e+00 0.000000e+00 1.000000e+00 6.128093e-01 -1.000366e+00
33 1 0.000000e+00 5.000000e-07 0.000000e+00 1.000000e+00 3.822608e-01 -1.000366e+00
34 1 5.000000e-07 5.000000e-07 0.000000e+00 1.000000e+00 3.635266e-01 -1.000366e+00
35 1 1.000000e-06 5.000000e-07 0.000000e+00 1.000000e+00 3.014007e-01 9.996338e-01
36 1 1.500000e-06 5.000000e-07 0.000000e+00 1.000000e+00 3.136653e-01 -1.000366e+00
37 1 2.000000e-06 5.000000e-07 0.000000e+00 1.000000e+00 3.121367e-01 9.996338e-01
38 1 2.500000e-06 5.000000e-07 0.000000e+00 1.000000e+00 3.259478e-01 -1.000366e+00
39 1 3.000000e-06 5.000000e-07 0.000000e+00 1.000000e+00 2.968786e-01 9.996338e-01
40 1 3.500000e-06 5.000000e-07 0.000000e+00 1.000000e+00 3.289545e-01 -1.000366e+00
41 1 4.000000e-06 5.000000e-07 0.000000e+00 1.000000e+00 3.311745e-01 9.996338e-01
42 1 4.500000e-06 5.000000e-07 0.000000e+00 1.000000e+00 3.174215e-01 -1.000366e+00
43 1 5.000000e-06 5.000000e-07 0.000000e+00 1.000000e+00 2.867472e-01 9.996338e-01
44 1 5.500000e-06 5.000000e-07 0.000000e+00 1.000000e+00 2.319036e-01 -1.000366e+00
45 1 6.000000e-06 5.000000e-07 0.000000e+00 1.000000e+00 2.811896e-01 9.996338e-01
46 1 6.500000e-06 5.000000e-07 0.000000e+00 1.000000e+00 3.665539e-01 -1.000366e+00
47 1 7.000000e-06 5.000000e-07 0.000000e+00 1.000000e+00 3.794072e-01 9.996338e-01
48 1 7.500000e-06 5.000000e-07 0.000000e+00 1.000000e+00 4.310265e-01 -1.000366e+00
49 1 8.000000e-06 5.000000e-07 0.000000e+00 1.000000e+00 3.664580e-01 -1.000366e+00
50 1 8.500000e-06 5.000000e-07 0.000000e+00 1.000000e+00 3.602192e-01 9.996338e-01
51 1 9.000000e-06 5.000000e-07 0.000000e+00 1.000000e+00 3.291982e-01 -1.000366e+00
52 1 9.500000e-06 5.000000e-07 0.000000e+00 1.000000e+00 3.630871e-01 9.996338e-01
53 1 1.000000e-05 5.000000e-07 0.000000e+00 1.000000e+00 3.262742e-01 -1.000366e+00
54 1 1.050000e-05 5.000000e-07 0.000000e+00 1.000000e+00 3.625722e-01 9.996338e-01
55 1 1.100000e-05 5.000000e-07 0.000000e+00 1.000000e+00 3.727549e-01 -1.000366e+00
56 1 1.150000e-05 5.000000e-07 0.000000e+00 1.000000e+00 3.403175e-01 9.996338e-01
57 1 1.200000e-05 5.000000e-07 0.000000e+00 1.000000e+00 3.049633e-01 -1.000366e+00
58 1 1.250000e-05 5.000000e-07 0.000000e+00 1.000000e+00 3.512977e-01 9.996338e-01
59 1 1.300000e-05 5.000000e-07 0.000000e+00 1.000000e+00 3.763193e-01 -1.000366e+00
60 1 1.350000e-05 5.000000e-07 0.000000e+00 1.000000e+00 3.540824e-01 9.996338e-01
61 1 1.400000e-05 5.000000e-07 0.000000e+00 1.000000e+00 3.413915e-01 -1.000366e+00
62 1 1.450000e-05 5.000000e-07 0.000000e+00 1.000000e+00 3.541442e-01 9.996338e-01
63 1 1.500000e-05 5.000000e-07 0.000000e+00 1.000000e+00 3.823524e-01 -1.000366e+00
64 1 1.550000e-05 5.000000e-07 0.000000e+00 1.000000e+00 5.004408e-01 9.996338e-01
65 1 0.000000e+00 1.000000e-06 0.000000e+00 1.000000e+00 4.251026e-01 9.996338e-01
66 1 5.000000e-07 1.000000e-06 0.000000e+00 1.000000e+00 4.086212e-01 9.996338e-01
67 1 1.000000e-06 1.000000e-06 0.000000e+00 1.000000e+00 3.131914e-01 -1.000366e+00
68 1 1.500000e-06 1.000000e-06 0.000000e+00 1.000000e+00 3.014057e-01 9.996338e-01
69 1 2.000000e-06 1.000000e-06 0.000000e+00 1.000000e+00 2.958840e-01 -1.000366e+00
70 1 2.500000e-06 1.000000e-06 0.000000e+00 1.000000e+00 2.968328e-01 9.996338e-01
71 1 3.000000e-06 1.000000e-06 0.000000e+00 1.000000e+00 2.705561e-01 -1.000366e+00
72 1 3.500000e-06 1.000000e-06 0.000000e+00 1.000000e+00 3.312378e-01 9.996338e-01
73 1 4.000000e-06 1.000000e-06 0.000000e+00 1.000000e+00 3.770617e-01 -1.000366e+00
74 1 4.500000e-06 1.000000e-06 0.000000e+00 1.000000e+00 4.251580e-01 9.996338e-01
75 1 5.000000e-06 1.000000e-06 0.000000e+00 1.000000e+00 4.132675e-01 -1.000366e+00
76 1 5.500000e-06 1.000000e-06 0.000000e+00 1.000000e+00 3.684052e-01 9.996338e-01
77 1 6.000000e-06 1.000000e-06 0.000000e+00 1.000000e+00 3.973457e-01 -1.000366e+00
78 1 6.500000e-06 1.000000e-06 0.000000e+00 1.000000e+00 2.855516e-01 9.996338e-01
79 1 7.000000e-06 1.000000e-06 0.000000e+00 1.000000e+00 2.341344e-01 -1.000366e+00
80 1 7.500000e-06 1.000000e-06 0.000000e+00 1.000000e+00 3.532120e-01 -1.000366e+00
81 1 8.000000e-06 1.000000e-06 0.000000e+00 1.000000e+00 3.315077e-01 9.996338e-01
82 1 8.500000e-06 1.000000e-06 0.000000e+00 1.000000e+00 3.498146e-01 -1.000366e+00
83 1 9.000000e-06 1.000000e-06 0.000000e+00 1.000000e+00 3.567739e-01 9.996338e-01
84 1 9.500000e-06 1.000000e-06 0.000000e+00 1.000000e+00 3.908798e-01 -1.000366e+00
85 1 1.000000e-05 1.000000e-06 0.000000e+00 1.000000e+00 3.137749e-01 9.996338e-01
86 1 1.050000e-05 1.000000e-06 0.000000e+00 1.000000e+00 3.529071e-01 -1.000366e+00
87 1 1.100000e-05 1.000000e-06 0.000000e+00 1.000000e+00 3.569846e-01 9.996338e-01
88 1 1.150000e-05 1.000000e-06 0.000000e+00 1.000000e+00 3.464779e-01 -1.000366e+00
89 1 1.200000e-05 1.000000e-06 0.000000e+00 1.000000e+00 3.420075e-01 9.996338e-01
90 1 1.250000e-05 1.000000e-06 0.000000e+00 1.000000e+00 3.751216e-01 -1.000366e+00
91 1 1.300000e-05 1.000000e-06 0.000000e+00 1.000000e+00 3.455450e-01 9.996338e-01
92 1 1.350000e-05 1.000000e-06 0.000000e+00 1.000000e+00 3.446974e-01 -1.000366e+00
93 1 1.400000e-05 1.000000e-06 0.000000e+00 1.000000e+00 3.469369e-01 9.996338e-01
94 1 1.450000e-05 1.000000e-06 0.000000e+00 1.000000e+00 3.752452e-01 -1.000366e+00
95 1 1.500000e-05 1.000000e-06 0.000000e+00 1.000000e+00 3.694931e-01 9.996338e-01
96 1 1.550000e-05 1.000000e-06 0.000000e+00 1.000000e+00 5.289396e-01 -1.000366e+00
97 1 0.000000e+00 1.500000e-06 0.000000e+00 1.000000e+00 4.548296e-01 -1.000366e+00
98 1 5.000000e-07 1.500000e-06 0.000000e+00 1.000000e+00 4.031468e-01 -1.000366e+00
99 1 1.000000e-06 1.500000e-06 0.000000e+00 1.000000e+00 3.384537e-01 9.996338e-01
100 1 1.500000e-06 1.500000e-06 0.000000e+00 1.000000e+00 3.764196e-01 -1.000366e+00
101 1 2.000000e-06 1.500000e-06 0.000000e+00 1.000000e+00 3.795852e-01 9.996338e-01
102 1 2.500000e-06 1.500000e-06 0.000000e+00 1.000000e+00 3.665816e-01 -1.000366e+00
103 1 3.000000e-06 1.500000e-06 0.000000e+00 1.000000e+00 3.537595e-01 9.996338e-01
104 1 3.500000e-06 1.500000e-06 0.000000e+00 1.000000e+00 3.537383e-01 -1.000366e+00
105 1 4.000000e-06 1.500000e-06 0.000000e+00 1.000000e+00 3.921622e-01 9.996338e-01
106 1 4.500000e-06 1.500000e-06 0.000000e+00 1.000000e+00 4.066716e-01 -1.000366e+00
107 1 5.000000e-06 1.500000e-06 0.000000e+00 1.000000e+00 3.918111e-01 9.996338e-01
108 1 5.500000e-06 1.500000e-06 0.000000e+00 1.000000e+00 3.668546e-01 9.996338e-01
109 1 6.000000e-06 1.500000e-06 0.000000e+00 1.000000e+00 3.602493e-01 -1.000366e+00
110 1 6.500000e-06 1.500000e-06 0.000000e+00 1.000000e+00 3.915144e-01 9.996338e-01
111 1 7.000000e-06 1.500000e-06 0.000000e+00 1.000000e+00 3.822051e-01 -1.000366e+00
112 1 7.500000e-06 1.500000e-06 0.000000e+00 1.000000e+00 3.625977e-01 9.996338e-01
113 1 8.000000e-06 1.500000e-06 0.000000e+00 1.000000e+00 3.713378e-01 -1.000366e+00
114 1 8.500000e-06 1.500000e-06 0.000000e+00 1.000000e+00 3.572406e-01 9.996338e-01
115 1 9.000000e-06 1.500000e-06 0.000000e+00 1.000000e+00 3.448823e-01 -1.000366e+00
116 1 9.500000e-06 1.500000e-06 0.000000e+00 1.000000e+00 3.402021e-01 9.996338e-01
117 1 1.000000e-05 1.500000e-06 0.000000e+00 1.000000e+00 3.150641e-01 -1.000366e+00
118 1 1.050000e-05 1.500000e-06 0.000000e+00 1.000000e+00 3.455493e-01 9.996338e-01
119 1 1.100000e-05 1.500000e-06 0.000000e+00 1.000000e+00 3.537451e-01 -1.000366e+00
120 1 1.150000e-05 1.500000e-06 0.000000e+00 1.000000e+00 3.151043e-01 9.996338e-01
121 1 1.200000e-05 1.500000e-06 0.000000e+00 1.000000e+00 3.819967e-01 -1.000366e+00
122 1 1.250000e-05 1.500000e-06 0.000000e+00 1.000000e+00 3.885592e-01 9.996338e-01
123 1 1.300000e-05 1.500000e-06 0.000000e+00 1.000000e+00 3.883948e-01 -1.000366e+00
124 1 1.350000e-05 1.500000e-06 0.000000e+00 1.000000e+00 3.719588e-01 9.996338e-01
125 1 1.400000e-05 1.500000e-06 0.000000e+00 1.000000e+00 3.574975e-01 -1.000366e+00
126 1 1.450000e-05 1.500000e-06 0.000000e+00 1.000000e+00 3.908720e-01 9.996338e-01
127 1 1.500000e-05 1.500000e-06 0.000000e+00 1.000000e+00 3.537397e-01 -1.000366e+00
128 1 1.550000e-05 1.500000e-06 0.000000e+00 1.000000e+00 5.368180e-01 9.996338e-01
129 1 0.000000e+00 2.000000e-06 0.000000e+00 1.000000e+00 4.320520e-01 -1.000366e+00
130 1 5.000000e-07 2.000000e-06 0.000000e+00 1.000000e+00 3.624645e-01 9.996338e-01
131 1 1.000000e-06 2.000000e-06 0.000000e+00 1.000000e+00 3.862149e-01 -1.000366e+00
132 1 1.500000e-06 2.000000e-06 0.000000e+00 1.000000e+00 3.728005e-01 9.996338e-01
133 1 2.000000e-06 2.000000e-06 0.000000e+00 1.000000e+00 3.358678e-01 -1.000366e+00
134 1 2.500000e-06 2.000000e-06 0.000000e+00 1.000000e+00 3.599046e-01 9.996338e-01
135 1 3.000000e-06 2.000000e-06 0.000000e+00 1.000000e+00 3.823577e-01 -1.000366e+00
136 1 3.500000e-06 2.000000e-06 0.000000e+00 1.000000e+00 3.538331e-01 9.996338e-01
137 1 4.000000e-06 2.000000e-06 0.000000e+00 1.000000e+00 3.984533e-01 -1.000366e+00
138 1 4.500000e-06 2.000000e-06 0.000000e+00 1.000000e+00 3.890282e-01 9.996338e-01
139 1 5.000000e-06 2.000000e-06 0.000000e+00 1.000000e+00 3.922030e-01 9.996338e-01
140 1 5.500000e-06 2.000000e-06 0.000000e+00 1.000000e+00 3.537860e-01 -1.000366e+00
141 1 6.000000e-06 2.000000e-06 0.000000e+00 1.000000e+00 3.795829e-01 9.996338e-01
142 1 6.500000e-06 2.000000e-06 0.000000e+00 1.000000e+00 3.720443e-01 -1.000366e+00
143 1 7.000000e-06 2.000000e-06 0.000000e+00 1.000000e+00 3.636924e-01 9.996338e-01
144 1 7.500000e-06 2.000000e-06 0.000000e+00 1.000000e+00 3.627250e-01 -1.000366e+00
145 1 8.000000e-06 2.000000e-06 0.000000e+00 1.000000e+00 3.572219e-01 9.996338e-01
146 1 8.500000e-06 2.000000e-06 0.000000e+00 1.000000e+00 3.824183e-01 -1.000366e+00
147 1 9.000000e-06 2.000000e-06 0.000000e+00 1.000000e+00 3.573338e-01 9.996338e-01
148 1 9.500000e-06 2.000000e-06 0.000000e+00 1.000000e+00 3.288908e-01 -1.000366e+00
149 1 1.000000e-05 2.000000e-06 0.000000e+00 1.000000e+00 3.577135e-01 9.996338e-01
150 1 1.050000e-05 2.000000e-06 0.000000e+00 1.000000e+00 3.566531e-01 -1.000366e+00
151 1 1.100000e-05 2.000000e-06 0.000000e+00 1.000000e+00 3.566960e-01 9.996338e-01
152 1 1.150000e-05 2.000000e-06 0.000000e+00 1.000000e+00 3.446179e-01 -1.000366e+00
153 1 1.200000e-05 2.000000e-06 0.000000e+00 1.000000e+00 3.567734e-01 9.996338e-01
154 1 1.250000e-05 2.000000e-06 0.000000e+00 1.000000e+00 3.665865e-01 -1.000366e+00
155 1 1.300000e-05 2.000000e-06 0.000000e+00 1.000000e+00 3.537961e-01 9.996338e-01
156 1 1.350000e-05 2.000000e-06 0.000000e+00 1.000000e+00 3.694637e-01 -1.000366e+00
157 1 1.400000e-05 2.000000e-06 0.000000e+00 1.000000e+00 3.693961e-01 9.996338e-01
158 1 1.450000e-05 2.000000e-06 0.000000e+00 1.000000e+00 3.541228e-01 -1.000366e+00
159 1 1.500000e-05 2.000000e-06 0.000000e+00 1.000000e+00 3.537096e-01 9.996338e-01
160 1 1.550000e-05 2.000000e-06 0.000000e+00 1.000000e+00 5.201848e-01 -1.000366e+00
161 1 0.000000e+00 2.500000e-06 0.000000e+00 1.000000e+00 4.678425e-01 9.996338e-01
162 1 5.000000e-07 2.500000e-06 0.000000e+00 1.000000e+00 3.963265e-01 -1.000366e+00
163 1 1.000000e-06 2.500000e-06 0.000000e+00 1.000000e+00 3.925948e-01 9.996338e-01
164 1 1.500000e-06 2.500000e-06 0.000000e+00 1.000000e+00 3.940235e-01 -1.000366e+00
165 1 2.000000e-06 2.500000e-06 0.000000e+00 1.000000e+00 3.672359e-01 9.996338e-01
166 1 2.500000e-06 2.500000e-06 0.000000e+00 1.000000e+00 3.292511e-01 -1.000366e+00
167 1 3.000000e-06 2.500000e-06 0.000000e+00 1.000000e+00 3.624436e-01 9.996338e-01
168 1 3.500000e-06 2.500000e-06 0.000000e+00 1.000000e+00 3.567552e-01 -1.000366e+00
169 1 4.000000e-06 2.500000e-06 0.000000e+00 1.000000e+00 3.816620e-01 9.996338e-01
170 1 4.500000e-06 2.500000e-06 0.000000e+00 1.000000e+00 3.706670e-01 -1.000366e+00
171 1 5.000000e-06 2.500000e-06 0.000000e+00 1.000000e+00 4.079362e-01 -1.000366e+00
172 1 5.500000e-06 2.500000e-06 0.000000e+00 1.000000e+00 3.802504e-01 9.996338e-01
173 1 6.000000e-06 2.500000e-06 0.000000e+00 1.000000e+00 4.107452e-01 -1.000366e+00
174 1 6.500000e-06 2.500000e-06 0.000000e+00 1.000000e+00 4.183202e-01 9.996338e-01
175 1 7.000000e-06 2.500000e-06 0.000000e+00 1.000000e+00 3.930142e-01 -1.000366e+00
176 1 7.500000e-06 2.500000e-06 0.000000e+00 1.000000e+00 3.956663e-01 9.996338e-01
177 1 8.000000e-06 2.500000e-06 0.000000e+00 1.000000e+00 3.926770e-01 -1.000366e+00
178 1 8.500000e-06 2.500000e-06 0.000000e+00 1.000000e+00 4.011626e-01 9.996338e-01
179 1 9.000000e-06 2.500000e-06 0.000000e+00 1.000000e+00 3.688048e-01 -1.000366e+00
180 1 9.500000e-06 2.500000e-06 0.000000e+00 1.000000e+00 3.790777e-01 9.996338e-01
181 1 1.000000e-05 2.500000e-06 0.000000e+00 1.000000e+00 3.440869e-01 -1.000366e+00
182 1 1.050000e-05 2.500000e-06 0.000000e+00 1.000000e+00 3.900637e-01 9.996338e-01
183 1 1.100000e-05 2.500000e-06 0.000000e+00 1.000000e+00 3.755533e-01 -1.000366e+00
184 1 1.150000e-05 2.500000e-06 0.000000e+00 1.000000e+00 3.751910e-01 9.996338e-01
185 1 1.200000e-05 2.500000e-06 0.000000e+00 1.000000e+00 3.955894e-01 -1.000366e+00
186 1 1.250000e-05 2.500000e-06 0.000000e+00 1.000000e+00 3.955940e-01 9.996338e-01
187 1 1.300000e-05 2.500000e-06 0.000000e+00 1.000000e+00 3.772122e-01 -1.000366e+00
188 1 1.350000e-05 2.500000e-06 0.000000e+00 1.000000e+00 4.072192e-01 9.996338e-01
189 1 1.400000e-05 2.500000e-06 0.000000e+00 1.000000e+00 3.973187e-01 -1.000366e+00
190 1 1.450000e-05 2.500000e-06 0.000000e+00 1.000000e+00 3.801976e-01 9.996338e-01
191 1 1.500000e-05 2.500000e-06 0.000000e+00 1.000000e+00 4.042975e-01 -1.000366e+00
192 1 1.550000e-05 2.500000e-06 0.000000e+00 1.000000e+00 4.765390e-01 -1.000366e+00
193 1 0.000000e+00 3.000000e-06 0.000000e+00 1.000000e+00 5.211605e-01 -1.000366e+00
194 1 5.000000e-07 3.000000e-06 0.000000e+00 1.000000e+00 3.568363e-01 9.996338e-01
195 1 1.000000e-06 3.000000e-06 0.000000e+00 1.000000e+00 3.702643e-01 -1.000366e+00
196 1 1.500000e-06 3.000000e-06 0.000000e+00 1.000000e+00 3.765046e-01 9.996338e-01
197 1 2.000000e-06 3.000000e-06 0.000000e+00 1.000000e+00 3.274801e-01 -1.000366e+00
198 1 2.500000e-06 3.000000e-06 0.000000e+00 1.000000e+00 3.276447e-01 9.996338e-01
199 1 3.000000e-06 3.000000e-06 0.000000e+00 1.000000e+00 3.604799e-01 -1.000366e+00
200 1 3.500000e-06 3.000000e-06 0.000000e+00 1.000000e+00 3.694269e-01 9.996338e-01
201 1 4.000000e-06 3.000000e-06 0.000000e+00 1.000000e+00 3.538238e-01 -1.000366e+00
202 1 4.500000e-06 3.000000e-06 0.000000e+00 1.000000e+00 3.817046e-01 9.996338e-01
203 1 5.000000e-06 3.000000e-06 0.000000e+00 1.000000e+00 4.213567e-01 -1.000366e+00
204 1 5.500000e-06 3.000000e-06 0.000000e+00 1.000000e+00 3.982992e-01 9.996338e-01
205 1 6.000000e-06 3.000000e-06 0.000000e+00 1.000000e+00 3.853458e-01 -1.000366e+00
206 1 6.500000e-06 3.000000e-06 0.000000e+00 1.000000e+00 3.980910e-01 9.996338e-01
207 1 7.000000e-06 3.000000e-06 0.000000e+00 1.000000e+00 4.238278e-01 -1.000366e+00
208 1 7.500000e-06 3.000000e-06 0.000000e+00 1.000000e+00 3.357015e-01 9.996338e-01
209 1 8.000000e-06 3.000000e-06 0.000000e+00 1.000000e+00 2.735304e-01 -1.000366e+00
210 1 8.500000e-06 3.000000e-06 0.000000e+00 1.000000e+00 2.735545e-01 9.996338e-01
211 1 9.000000e-06 3.000000e-06 0.000000e+00 1.000000e+00 2.725326e-01 -1.000366e+00
212 1 9.500000e-06 3.000000e-06 0.000000e+00 1.000000e+00 3.271421e-01 9.996338e-01
213 1 1.000000e-05 3.000000e-06 0.000000e+00 1.000000e+00 2.598677e-01 -1.000366e+00
214 1 1.050000e-05 3.000000e-06 0.000000e+00 1.000000e+00 3.086609e-01 9.996338e-01
215 1 1.100000e-05 3.000000e-06 0.000000e+00 1.000000e+00 4.037217e-01 -1.000366e+00
216 1 1.150000e-05 3.000000e-06 0.000000e+00 1.000000e+00 4.203938e-01 9.996338e-01
217 1 1.200000e-05 3.000000e-06 0.000000e+00 1.000000e+00 3.363097e-01 -1.000366e+00
218 1 1.250000e-05 3.000000e-06 0.000000e+00 1.000000e+00 3.549791e-01 9.996338e-01
219 1 1.300000e-05 3.000000e-06 0.000000e+00 1.000000e+00 3.921526e-01 -1.000366e+00
220 1 1.350000e-05 3.000000e-06 0.000000e+00 1.000000e+00 3.855166e-01 9.996338e-01
221 1 1.400000e-05 3.000000e-06 0.000000e+00 1.000000e+00 3.847145e-01 -1.000366e+00
222 1 1.450000e-05 3.000000e-06 0.000000e+00 1.000000e+00 4.053634e-01 9.996338e-01
223 1 1.500000e-05 3.000000e-06 0.000000e+00 1.000000e+00 4.083038e-01 -1.000366e+00
224 1 1.550000e-05 3.000000e-06 0.000000e+00 1.000000e+00 5.596915e-01 9.996338e-01
225 1 0.000000e+00 3.500000e-06 0.000000e+00 1.000000e+00 5.002899e-01 9.996338e-01
226 1 5.000000e-07 3.500000e-06 0.000000e+00 1.000000e+00 3.537641e-01 -1.000366e+00
227 1 1.000000e-06 3.500000e-06 0.000000e+00 1.000000e+00 3.537020e-01 9.996338e-01
228 1 1.500000e-06 3.500000e-06 0.000000e+00 1.000000e+00 3.566743e-01 -1.000366e+00
229 1 2.000000e-06 3.500000e-06 0.000000e+00 1.000000e+00 3.413107e-01 9.996338e-01
230 1 2.500000e-06 3.500000e-06 0.000000e+00 1.000000e+00 3.374608e-01 -1.000366e+00
231 1 3.000000e-06 3.500000e-06 0.000000e+00 1.000000e+00 3.438445e-01 9.996338e-01
232 1 3.500000e-06 3.500000e-06 0.000000e+00 1.000000e+00 3.449355e-01 -1.000366e+00
233 1 4.000000e-06 3.500000e-06 0.000000e+00 1.000000e+00 3.250878e-01 9.996338e-01
234 1 4.500000e-06 3.500000e-06 0.000000e+00 1.000000e+00 2.448177e-01 -1.000366e+00
235 1 5.000000e-06 3.500000e-06 0.000000e+00 1.000000e+00 3.183773e-01 9.996338e-01
236 1 5.500000e-06 3.500000e-06 0.000000e+00 1.000000e+00 3.977809e-01 -1.000366e+00
237 1 6.000000e-06 3.500000e-06 0.000000e+00 1.000000e+00 3.567234e-01 9.996338e-01
238 1 6.500000e-06 3.500000e-06 0.000000e+00 1.000000e+00 3.568792e-01 -1.000366e+00
239 1 7.000000e-06 3.500000e-06 0.000000e+00 1.000000e+00 3.567056e-01 9.996338e-01
240 1 7.500000e-06 3.500000e-06 0.000000e+00 1.000000e+00 3.205962e-01 -1.000366e+00
241 1 8.000000e-06 3.500000e-06 0.000000e+00 1.000000e+00 3.601197e-01 9.996338e-01
242 1 8.500000e-06 3.500000e-06 0.000000e+00 1.000000e+00 3.147685e-01 -1.000366e+00
243 1 9.000000e-06 3.500000e-06 0.000000e+00 1.000000e+00 3.792678e-01 9.996338e-01
244 1 9.500000e-06 3.500000e-06 0.000000e+00 1.000000e+00 3.265102e-01 -1.000366e+00
245 1 1.000000e-05 3.500000e-06 0.000000e+00 1.000000e+00 3.138044e-01 9.996338e-01
246 1 1.050000e-05 3.500000e-06 0.000000e+00 1.000000e+00 2.707997e-01 -1.000366e+00
247 1 1.100000e-05 3.500000e-06 0.000000e+00 1.000000e+00 3.465978e-01 9.996338e-01
248 1 1.150000e-05 3.500000e-06 0.000000e+00 1.000000e+00 4.028937e-01 -1.000366e+00
249 1 1.200000e-05 3.500000e-06 0.000000e+00 1.000000e+00 3.537284e-01 9.996338e-01
250 1 1.250000e-05 3.500000e-06 0.000000e+00 1.000000e+00 3.665909e-01 -1.000366e+00
251 1 1.300000e-05 3.500000e-06 0.000000e+00 1.000000e+00 3.655469e-01 9.996338e-01
252 1 1.350000e-05 3.500000e-06 0.000000e+00 1.000000e+00 3.486241e-01 -1.000366e+00
253 1 1.400000e-05 3.500000e-06 0.000000e+00 1.000000e+00 3.220328e-01 9.996338e-01
254 1 1.450000e-05 3.500000e-06 0.000000e+00 1.000000e+00 3.261850e-01 -1.000366e+00
255 1 1.500000e-05 3.500000e-06 0.000000e+00 1.000000e+00 3.189157e-01 9.996338e-01
256 1 1.550000e-05 3.500000e-06 0.000000e+00 1.000000e+00 4.975248e-01 -1.000366e+00
257 1 0.000000e+00 4.000000e-06 0.000000e+00 1.000000e+00 5.047481e-01 -1.000366e+00
258 1 5.000000e-07 4.000000e-06 0.000000e+00 1.000000e+00 3.568073e-01 9.996338e-01
259 1 1.000000e-06 4.000000e-06 0.000000e+00 1.000000e+00 3.567438e-01 -1.000366e+00
260 1 1.500000e-06 4.000000e-06 0.000000e+00 1.000000e+00 3.626900e-01 9.996338e-01
261 1 2.000000e-06 4.000000e-06 0.000000e+00 1.000000e+00 3.548131e-01 -1.000366e+00
262 1 2.500000e-06 4.000000e-06 0.000000e+00 1.000000e+00 3.600655e-01 9.996338e-01
263 1 3.000000e-06 4.000000e-06 0.000000e+00 1.000000e+00 3.929092e-01 -1.000366e+00
264 1 3.500000e-06 4.000000e-06 0.000000e+00 1.000000e+00 4.002789e-01 9.996338e-01
265 1 4.000000e-06 4.000000e-06 0.000000e+00 1.000000e+00 3.800000e-01 -1.000366e+00
266 1 4.500000e-06 4.000000e-06 0.000000e+00 1.000000e+00 4.274924e-01 9.996338e-01
267 1 5.000000e-06 4.000000e-06 0.000000e+00 1.000000e+00 4.167785e-01 -1.000366e+00
268 1 5.500000e-06 4.000000e-06 0.000000e+00 1.000000e+00 3.969430e-01 9.996338e-01
269 1 6.000000e-06 4.000000e-06 0.000000e+00 1.000000e+00 4.035705e-01 -1.000366e+00
270 1 6.500000e-06 4.000000e-06 0.000000e+00 1.000000e+00 3.537930e-01 9.996338e-01
271 1 7.000000e-06 4.000000e-06 0.000000e+00 1.000000e+00 3.856325e-01 -1.000366e+00
272 1 7.500000e-06 4.000000e-06 0.000000e+00 1.000000e+00 3.923353e-01 9.996338e-01
273 1 8.000000e-06 4.000000e-06 0.000000e+00 1.000000e+00 3.827732e-01 -1.000366e+00
274 1 8.500000e-06 4.000000e-06 0.000000e+00 1.000000e+00 3.593570e-01 9.996338e-01
275 1 9.000000e-06 4.000000e-06 0.000000e+00 1.000000e+00 3.694259e-01 -1.000366e+00
276 1 9.500000e-06 4.000000e-06 0.000000e+00 1.000000e+00 3.538785e-01 9.996338e-01
277 1 1.000000e-05 4.000000e-06 0.000000e+00 1.000000e+00 3.538300e-01 -1.000366e+00
278 1 1.050000e-05 4.000000e-06 0.000000e+00 1.000000e+00 3.498816e-01 9.996338e-01
279 1 1.100000e-05 4.000000e-06 0.000000e+00 1.000000e+00 3.445833e-01 -1.000366e+00
280 1 1.150000e-05 4.000000e-06 0.000000e+00 1.000000e+00 3.593173e-01 9.996338e-01
281 1 1.200000e-05 4.000000e-06 0.000000e+00 1.000000e+00 3.826453e-01 -1.000366e+00
282 1 1.250000e-05 4.000000e-06 0.000000e+00 1.000000e+00 3.794906e-01 9.996338e-01
283 1 1.300000e-05 4.000000e-06 0.000000e+00 1.000000e+00 3.727820e-01 -1.000366e+00
284 1 1.350000e-05 4.000000e-06 0.000000e+00 1.000000e+00 3.574575e-01 9.996338e-01
285 1 1.400000e-05 4.000000e-06 0.000000e+00 1.000000e+00 3.676069e-01 -1.000366e+00
286 1 1.450000e-05 4.000000e-06 0.000000e+00 1.000000e+00 3.636505e-01 9.996338e-01
287 1 1.500000e-05 4.000000e-06 0.000000e+00 1.000000e+00 3.604350e-01 -1.000366e+00
288 1 1.550000e-05 4.000000e-06 0.000000e+00 1.000000e+00 5.096141e-01 9.996338e-01
289 1 0.000000e+00 4.500000e-06 0.000000e+00 1.000000e+00 4.887680e-01 9.996338e-01
290 1 5.000000e-07 4.500000e-06 0.000000e+00 1.000000e+00 3.570299e-01 -1.000366e+00
291 1 1.000000e-06 4.500000e-06 0.000000e+00 1.000000e+00 3.569624e-01 9.996338e-01
292 1 1.500000e-06 4.500000e-06 0.000000e+00 1.000000e+00 3.570182e-01 -1.000366e+00
293 1 2.000000e-06 4.500000e-06 0.000000e+00 1.000000e+00 3.641890e-01 9.996338e-01
294 1 2.500000e-06 4.500000e-06 0.000000e+00 1.000000e+00 3.480536e-01 -1.000366e+00
295 1 3.000000e-06 4.500000e-06 0.000000e+00 1.000000e+00 4.153880e-01 9.996338e-01
296 1 3.500000e-06 4.500000e-06 0.000000e+00 1.000000e+00 3.857262e-01 -1.000366e+00
297 1 4.000000e-06 4.500000e-06 0.000000e+00 1.000000e+00 3.733270e-01 9.996338e-01
298 1 4.500000e-06 4.500000e-06 0.000000e+00 1.000000e+00 3.538475e-01 9.996338e-01
299 1 5.000000e-06 4.500000e-06 0.000000e+00 1.000000e+00 3.742599e-01 9.996338e-01
300 1 5.500000e-06 4.500000e-06 0.000000e+00 1.000000e+00 3.720608e-01 -1.000366e+00
301 1 6.000000e-06 4.500000e-06 0.000000e+00 1.000000e+00 3.497573e-01 9.996338e-01
302 1 6.500000e-06 4.500000e-06 0.000000e+00 1.000000e+00 3.599974e-01 -1.000366e+00
303 1 7.000000e-06 4.500000e-06 0.000000e+00 1.000000e+00 3.566515e-01 9.996338e-01
304 1 7.500000e-06 4.500000e-06 0.000000e+00 1.000000e+00 3.655679e-01 -1.000366e+00
305 1 8.000000e-06 4.500000e-06 0.000000e+00 1.000000e+00 3.790183e-01 9.996338e-01
306 1 8.500000e-06 4.500000e-06 0.000000e+00 1.000000e+00 3.755405e-01 -1.000366e+00
307 1 9.000000e-06 4.500000e-06 0.000000e+00 1.000000e+00 3.536968e-01 9.996338e-01
308 1 9.500000e-06 4.500000e-06 0.000000e+00 1.000000e+00 3.665836e-01 -1.000366e+00
309 1 1.000000e-05 4.500000e-06 0.000000e+00 1.000000e+00 3.446536e-01 9.996338e-01
310 1 1.050000e-05 4.500000e-06 0.000000e+00 1.000000e+00 3.655835e-01 -1.000366e+00
311 1 1.100000e-05 4.500000e-06 0.000000e+00 1.000000e+00 3.421184e-01 9.996338e-01
312 1 1.150000e-05 4.500000e-06 0.000000e+00 1.000000e+00 3.497374e-01 -1.000366e+00
313 1 1.200000e-05 4.500000e-06 0.000000e+00 1.000000e+00 3.567895e-01 9.996338e-01
314 1 1.250000e-05 4.500000e-06 0.000000e+00 1.000000e+00 3.754836e-01 -1.000366e+00
315 1 1.300000e-05 4.500000e-06 0.000000e+00 1.000000e+00 3.676019e-01 9.996338e-01
316 1 1.350000e-05 4.500000e-06 0.000000e+00 1.000000e+00 3.499129e-01 -1.000366e+00
317 1 1.400000e-05 4.500000e-06 0.000000e+00 1.000000e+00 3.257852e-01 9.996338e-01
318 1 1.450000e-05 4.500000e-06 0.000000e+00 1.000000e+00 3.465189e-01 -1.000366e+00
319 1 1.500000e-05 4.500000e-06 0.000000e+00 1.000000e+00 3.774292e-01 9.996338e-01
320 1 1.550000e-05 4.500000e-06 0.000000e+00 1.000000e+00 5.250408e-01 -1.000366e+00
321 1 0.000000e+00 5.000000e-06 0.000000e+00 1.000000e+00 5.047771e-01 -1.000366e+00
322 1 5.000000e-07 5.000000e-06 0.000000e+00 1.000000e+00 3.566748e-01 9.996338e-01
323 1 1.000000e-06 5.000000e-06 0.000000e+00 1.000000e+00 3.567306e-01 -1.000366e+00
324 1 1.500000e-06 5.000000e-06 0.000000e+00 1.000000e+00 3.499152e-01 9.996338e-01
325 1 2.000000e-06 5.000000e-06 0.000000e+00 1.000000e+00 3.512644e-01 -1.000366e+00
326 1 2.500000e-06 5.000000e-06 0.000000e+00 1.000000e+00 3.539558e-01 9.996338e-01
327 1 3.000000e-06 5.000000e-06 0.000000e+00 1.000000e+00 3.821331e-01 -1.000366e+00
328 1 3.500000e-06 5.000000e-06 0.000000e+00 1.000000e+00 3.984625e-01 9.996338e-01
329 1 4.000000e-06 5.000000e-06 0.000000e+00 1.000000e+00 3.860114e-01 -1.000366e+00
330 1 4.500000e-06 5.000000e-06 0.000000e+00 1.000000e+00 3.665508e-01 -1.000366e+00
331 1 5.000000e-06 5.000000e-06 0.000000e+00 1.000000e+00 3.366290e-01 -1.000366e+00
332 1 5.500000e-06 5.000000e-06 0.000000e+00 1.000000e+00 3.793287e-01 9.996338e-01
333 1 6.000000e-06 5.000000e-06 0.000000e+00 1.000000e+00 3.617042e-01 -1.000366e+00
334 1 6.500000e-06 5.000000e-06 0.000000e+00 1.000000e+00 3.567201e-01 9.996338e-01
335 1 7.000000e-06 5.000000e-06 0.000000e+00 1.000000e+00 3.538634e-01 -1.000366e+00
336 1 7.500000e-06 5.000000e-06 0.000000e+00 1.000000e+00 3.568338e-01 9.996338e-01
337 1 8.000000e-06 5.000000e-06 0.000000e+00 1.000000e+00 3.728388e-01 -1.000366e+00
338 1 8.500000e-06 5.000000e-06 0.000000e+00 1.000000e+00 3.796193e-01 9.996338e-01
339 1 9.000000e-06 5.000000e-06 0.000000e+00 1.000000e+00 3.538216e-01 -1.000366e+00
340 1 9.500000e-06 5.000000e-06 0.000000e+00 1.000000e+00 3.794158e-01 9.996338e-01
341 1 1.000000e-05 5.000000e-06 0.000000e+00 1.000000e+00 3.726304e-01 -1.000366e+00
342 1 1.050000e-05 5.000000e-06 0.000000e+00 1.000000e+00 3.757761e-01 9.996338e-01
343 1 1.100000e-05 5.000000e-06 0.000000e+00 1.000000e+00 3.826818e-01 -1.000366e+00
344 1 1.150000e-05 5.000000e-06 0.000000e+00 1.000000e+00 3.573922e-01 9.996338e-01
345 1 1.200000e-05 5.000000e-06 0.000000e+00 1.000000e+00 3.538025e-01 -1.000366e+00
346 1 1.250000e-05 5.000000e-06 0.000000e+00 1.000000e+00 3.727300e-01 9.996338e-01
347 1 1.300000e-05 5.000000e-06 0.000000e+00 1.000000e+00 3.892174e-01 -1.000366e+00
348 1 1.350000e-05 5.000000e-06 0.000000e+00 1.000000e+00 3.145196e-01 9.996338e-01
349 1 1.400000e-05 5.000000e-06 0.000000e+00 1.000000e+00 3.004499e-01 -1.000366e+00
350 1 1.450000e-05 5.000000e-06 0.000000e+00 1.000000e+00 3.297027e-01 9.996338e-01
351 1 1.500000e-05 5.000000e-06 0.000000e+00 1.000000e+00 3.388650e-01 -1.000366e+00
352 1 1.550000e-05 5.000000e-06 0.000000e+00 1.000000e+00 4.818423e-01 9.996338e-01
353 1 0.000000e+00 5.500000e-06 0.000000e+00 1.000000e+00 4.786811e-01 9.996338e-01
354 1 5.000000e-07 5.500000e-06 0.000000e+00 1.000000e+00 3.289658e-01 -1.000366e+00