ITEM: TIMESTEP
3
ITEM: NUMBER OF ATOMS
16384
ITEM: BOX BOUNDS pp pp pp
0.0 1.600000e-05
0.0 1.600000e-05
0.0 8.000000e-06
ITEM: ATOMS id type x y z crack plastic psi
1 1 0.000000e+00 0.000000e+00 0.000000e+00 9.649771e-01 1.000000e+00 -1.500000e+00
2 1 5.000000e-07 0.000000e+00 0.000000e+00 9.527270e-01 8.164966e-01 1.500000e+00
3 1 1.000000e-06 0.000000e+00 0.000000e+00 9.518264e-01 8.164966e-01 -1.500000e+00
4 1 1.500000e-06 0.000000e+00 0.000000e+00 9.440315e-01 8.164966e-01 1.500000e+00
5 1 2.000000e-06 0.000000e+00 0.000000e+00 9.429987e-01 8.164966e-01 -1.500000e+00
6 1 2.500000e-06 0.000000e+00 0.000000e+00 9.393798e-01 8.164966e-01 1.500000e+00
7 1 3.000000e-06 0.000000e+00 0.000000e+00 9.395553e-01 8.164966e-01 -1.500000e+00
8 1 3.500000e-06 0.000000e+00 0.000000e+00 9.378408e-01 8.164966e-01 1.500000e+00
9 1 4.000000e-06 0.000000e+00 0.000000e+00 9.383275e-01 8.164966e-01 -1.500000e+00
10 1 4.500000e-06 0.000000e+00 0.000000e+00 9.374251e-01 8.164966e-01 1.500000e+00
11 1 5.000000e-06 0.000000e+00 0.000000e+00 9.378441e-01 8.164966e-01 -1.500000e+00
12 1 5.500000e-06 0.000000e+00 0.000000e+00 9.373329e-01 8.164966e-01 1.500000e+00
13 1 6.000000e-06 0.000000e+00 0.000000e+00 9.376554e-01 8.164966e-01 -1.500000e+00
14 1 6.500000e-06 0.000000e+00 0.000000e+00 9.373633e-01 8.164966e-01 1.500000e+00
15 1 7.000000e-06 0.000000e+00 0.000000e+00 9.376323e-01 8.164966e-01 -1.500000e+00
16 1 7.500000e-06 0.000000e+00 0.000000e+00 9.375003e-01 8.164966e-01 1.500000e+00
17 1 8.000000e-06 0.000000e+00 0.000000e+00 9.377609e-01 8.164966e-01 -1.500000e+00
18 1 8.500000e-06 0.000000e+00 0.000000e+00 9.377592e-01 8.164966e-01 1.500000e+00
19 1 9.000000e-06 0.000000e+00 0.000000e+00 9.380354e-01 8.164966e-01 -1.500000e+00
20 1 9.500000e-06 0.000000e+00 0.000000e+00 9.382011e-01 8.164966e-01 1.500000e+00
21 1 1.000000e-05 0.000000e+00 0.000000e+00 9.385393e-01 8.164966e-01 -1.500000e+00
22 1 1.050000e-05 0.000000e+00 0.000000e+00 9.389714e-01 8.164966e-01 1.500000e+00
23 1 1.100000e-05 0.000000e+00 0.000000e+00 9.394489e-01 8.164966e-01 -1.500000e+00
24 1 1.150000e-05 0.000000e+00 0.000000e+00 9.403421e-01 8.164966e-01 1.500000e+00
25 1 1.200000e-05 0.000000e+00 0.000000e+00 9.410265e-01 8.164966e-01 -1.500000e+00
26 1 1.250000e-05 0.000000e+00 0.000000e+00 9.427610e-01 8.164966e-01 1.500000e+00
27 1 1.300000e-05 0.000000e+00 0.000000e+00 9.434687e-01 8.164966e-01 -1.500000e+00
28 1 1.350000e-05 0.000000e+00 0.000000e+00 9.469245e-01 8.164966e-01 1.500000e+00
29 1 1.400000e-05 0.000000e+00 0.000000e+00 9.469468e-01 8.164966e-01 -1.500000e+00
30 1 1.450000e-05 0.000000e+00 0.000000e+00 9.540925e-01 8.164966e-01 1.500000e+00
31 1 1.500000e-05 0.000000e+00 0.000000e+00 9.531538e-01 8.164966e-01 -1.500000e+00
32 1 1.550000e-05 0.000000e+00 0.000000e+00 9.651925e-01 1.000000e+00 1.500000e+00
33 1 0.000000e+00 5.000000e-07 0.000000e+00 9.673262e-01 8.164966e-01 1.500000e+00
34 1 5.000000e-07 5.000000e-07 0.000000e+00 9.471321e-01 5.773503e-01 -1.500000e+00
35 1 1.000000e-06 5.000000e-07 0.000000e+00 9.420319e-01 5.773503e-01 1.500000e+00
36 1 1.500000e-06 5.000000e-07 0.000000e+00 9.343782e-01 5.773503e-01 -1.500000e+00
37 1 2.000000e-06 5.000000e-07 0.000000e+00 9.331255e-01 5.773503e-01 1.500000e+00
38 1 2.500000e-06 5.000000e-07 0.000000e+00 9.304694e-01 5.773503e-01 -1.500000e+00
39 1 3.000000e-06 5.000000e-07 0.000000e+00 9.306041e-01 5.773503e-01 1.500000e+00
40 1 3.500000e-06 5.000000e-07 0.000000e+00 9.295628e-01 5.773503e-01 -1.500000e+00
41 1 4.000000e-06 5.000000e-07 0.000000e+00 9.298747e-01 5.773503e-01 1.500000e+00
42 1 4.500000e-06 5.000000e-07 0.000000e+00 9.296155e-01 5.773503e-01 -1.500000e+00
43 1 5.000000e-06 5.000000e-07 0.000000e+00 9.298033e-01 5.773503e-01 1.500000e+00
44 1 5.500000e-06 5.000000e-07 0.000000e+00 9.296603e-01 5.773503e-01 -1.500000e+00
45 1 6.000000e-06 5.000000e-07 0.000000e+00 9.297673e-01 5.773503e-01 1.500000e+00
46 1 6.500000e-06 5.000000e-07 0.000000e+00 9.297017e-01 5.773503e-01 -1.500000e+00
47 1 7.000000e-06 5.000000e-07 0.000000e+00 9.297679e-01 5.773503e-01 1.500000e+00
48 1 7.500000e-06 5.000000e-07 0.000000e+00 9.297668e-01 5.773503e-01 -1.500000e+00
49 1 8.000000e-06 5.000000e-07 0.000000e+00 9.298283e-01 5.773503e-01 1.500000e+00
50 1 8.500000e-06 5.000000e-07 0.000000e+00 9.298624e-01 5.773503e-01 -1.500000e+00
51 1 9.000000e-06 5.000000e-07 0.000000e+00 9.299364e-01 5.773503e-01 1.500000e+00
52 1 9.500000e-06 5.000000e-07 0.000000e+00 9.301360e-01 5.773503e-01 -1.500000e+00
53 1 1.000000e-05 5.000000e-07 0.000000e+00 9.302670e-01 5.773503e-01 1.500000e+00
54 1 1.050000e-05 5.000000e-07 0.000000e+00 9.309369e-01 5.773503e-01 -1.500000e+00
55 1 1.100000e-05 5.000000e-07 0.000000e+00 9.312785e-01 5.773503e-01 1.500000e+00
56 1 1.150000e-05 5.000000e-07 0.000000e+00 9.323588e-01 5.773503e-01 -1.500000e+00
57 1 1.200000e-05 5.000000e-07 0.000000e+00 9.330708e-01 5.773503e-01 1.500000e+00
58 1 1.250000e-05 5.000000e-07 0.000000e+00 9.349048e-01 5.773503e-01 -1.500000e+00
59 1 1.300000e-05 5.000000e-07 0.000000e+00 9.361359e-01 5.773503e-01 1.500000e+00
60 1 1.350000e-05 5.000000e-07 0.000000e+00 9.396115e-01 5.773503e-01 -1.500000e+00
61 1 1.400000e-05 5.000000e-07 0.000000e+00 9.411879e-01 5.773503e-01 1.500000e+00
62 1 1.450000e-05 5.000000e-07 0.000000e+00 9.491528e-01 5.773503e-01 -1.500000e+00
63 1 1.500000e-05 5.000000e-07 0.000000e+00 9.501468e-01 5.773503e-01 1.500000e+00
64 1 1.550000e-05 5.000000e-07 0.000000e+00 9.693574e-01 8.164966e-01 -1.500000e+00
65 1 0.000000e+00 1.000000e-06 0.000000e+00 9.624286e-01 8.164966e-01 -1.500000e+00
66 1 5.000000e-07 1.000000e-06 0.000000e+00 9.448635e-01 5.773503e-01 1.500000e+00
67 1 1.000000e-06 1.000000e-06 0.000000e+00 9.414579e-01 5.773503e-01 -1.500000e+00
68 1 1.500000e-06 1.000000e-06 0.000000e+00 9.325617e-01 5.773503e-01 1.500000e+00
69 1 2.000000e-06 1.000000e-06 0.000000e+00 9.320480e-01 5.773503e-01 -1.500000e+00
70 1 2.500000e-06 1.000000e-06 0.000000e+00 9.282244e-01 5.773503e-01 1.500000e+00
71 1 3.000000e-06 1.000000e-06 0.000000e+00 9.282971e-01 5.773503e-01 -1.500000e+00
72 1 3.500000e-06 1.000000e-06 0.000000e+00 9.276150e-01 5.773503e-01 1.500000e+00
73 1 4.000000e-06 1.000000e-06 0.000000e+00 9.277277e-01 5.773503e-01 -1.500000e+00
74 1 4.500000e-06 1.000000e-06 0.000000e+00 9.273935e-01 5.773503e-01 1.500000e+00
75 1 5.000000e-06 1.000000e-06 0.000000e+00 9.275097e-01 5.773503e-01 -1.500000e+00
76 1 5.500000e-06 1.000000e-06 0.000000e+00 9.273311e-01 5.773503e-01 1.500000e+00
77 1 6.000000e-06 1.000000e-06 0.000000e+00 9.274392e-01 5.773503e-01 -1.500000e+00
78 1 6.500000e-06 1.000000e-06 0.000000e+00 9.273478e-01 5.773503e-01 1.500000e+00
79 1 7.000000e-06 1.000000e-06 0.000000e+00 9.274415e-01 5.773503e-01 -1.500000e+00
80 1 7.500000e-06 1.000000e-06 0.000000e+00 9.274166e-01 5.773503e-01 1.500000e+00
81 1 8.000000e-06 1.000000e-06 0.000000e+00 9.275047e-01 5.773503e-01 -1.500000e+00
82 1 8.500000e-06 1.000000e-06 0.000000e+00 9.275344e-01 5.773503e-01 1.500000e+00
83 1 9.000000e-06 1.000000e-06 0.000000e+00 9.276260e-01 5.773503e-01 -1.500000e+00
84 1 9.500000e-06 1.000000e-06 0.000000e+00 9.277198e-01 5.773503e-01 1.500000e+00
85 1 1.000000e-05 1.000000e-06 0.000000e+00 9.278284e-01 5.773503e-01 -1.500000e+00
86 1 1.050000e-05 1.000000e-06 0.000000e+00 9.280129e-01 5.773503e-01 1.500000e+00
87 1 1.100000e-05 1.000000e-06 0.000000e+00 9.281313e-01 5.773503e-01 -1.500000e+00
88 1 1.150000e-05 1.000000e-06 0.000000e+00 9.284811e-01 5.773503e-01 1.500000e+00
89 1 1.200000e-05 1.000000e-06 0.000000e+00 9.286933e-01 5.773503e-01 -1.500000e+00
90 1 1.250000e-05 1.000000e-06 0.000000e+00 9.305858e-01 5.773503e-01 1.500000e+00
91 1 1.300000e-05 1.000000e-06 0.000000e+00 9.311476e-01 5.773503e-01 -1.500000e+00
92 1 1.350000e-05 1.000000e-06 0.000000e+00 9.352170e-01 5.773503e-01 1.500000e+00
93 1 1.400000e-05 1.000000e-06 0.000000e+00 9.364058e-01 5.773503e-01 -1.500000e+00
94 1 1.450000e-05 1.000000e-06 0.000000e+00 9.454419e-01 5.773503e-01 1.500000e+00
95 1 1.500000e-05 1.000000e-06 0.000000e+00 9.468440e-01 5.773503e-01 -1.500000e+00
96 1 1.550000e-05 1.000000e-06 0.000000e+00 9.647553e-01 8.164966e-01 1.500000e+00
97 1 0.000000e+00 1.500000e-06 0.000000e+00 9.683492e-01 8.164966e-01 1.500000e+00
98 1 5.000000e-07 1.500000e-06 0.000000e+00 9.466875e-01 5.773503e-01 -1.500000e+00
99 1 1.000000e-06 1.500000e-06 0.000000e+00 9.421264e-01 5.773503e-01 1.500000e+00
100 1 1.500000e-06 1.500000e-06 0.000000e+00 9.326664e-01 5.773503e-01 -1.500000e+00
101 1 2.000000e-06 1.500000e-06 0.000000e+00 9.310023e-01 5.773503e-01 1.500000e+00
102 1 2.500000e-06 1.500000e-06 0.000000e+00 9.282807e-01 5.773503e-01 -1.500000e+00
103 1 3.000000e-06 1.500000e-06 0.000000e+00 9.283094e-01 5.773503e-01 1.500000e+00
104 1 3.500000e-06 1.500000e-06 0.000000e+00 9.278091e-01 5.773503e-01 -1.500000e+00
105 1 4.000000e-06 1.500000e-06 0.000000e+00 9.279031e-01 5.773503e-01 1.500000e+00
106 1 4.500000e-06 1.500000e-06 0.000000e+00 9.277015e-01 5.773503e-01 -1.500000e+00
107 1 5.000000e-06 1.500000e-06 0.000000e+00 9.278092e-01 5.773503e-01 1.500000e+00
108 1 5.500000e-06 1.500000e-06 0.000000e+00 9.277162e-01 5.773503e-01 -1.500000e+00
109 1 6.000000e-06 1.500000e-06 0.000000e+00 9.278154e-01 5.773503e-01 1.500000e+00
110 1 6.500000e-06 1.500000e-06 0.000000e+00 9.277742e-01 5.773503e-01 -1.500000e+00
111 1 7.000000e-06 1.500000e-06 0.000000e+00 9.278626e-01 5.773503e-01 1.500000e+00
112 1 7.500000e-06 1.500000e-06 0.000000e+00 9.278583e-01 5.773503e-01 -1.500000e+00
113 1 8.000000e-06 1.500000e-06 0.000000e+00 9.279463e-01 5.773503e-01 1.500000e+00
114 1 8.500000e-06 1.500000e-06 0.000000e+00 9.279730e-01 5.773503e-01 -1.500000e+00
115 1 9.000000e-06 1.500000e-06 0.000000e+00 9.280718e-01 5.773503e-01 1.500000e+00
116 1 9.500000e-06 1.500000e-06 0.000000e+00 9.281383e-01 5.773503e-01 -1.500000e+00
117 1 1.000000e-05 1.500000e-06 0.000000e+00 9.282603e-01 5.773503e-01 1.500000e+00
118 1 1.050000e-05 1.500000e-06 0.000000e+00 9.283774e-01 5.773503e-01 -1.500000e+00
119 1 1.100000e-05 1.500000e-06 0.000000e+00 9.285265e-01 5.773503e-01 1.500000e+00
120 1 1.150000e-05 1.500000e-06 0.000000e+00 9.287500e-01 5.773503e-01 -1.500000e+00
121 1 1.200000e-05 1.500000e-06 0.000000e+00 9.292105e-01 5.773503e-01 1.500000e+00
122 1 1.250000e-05 1.500000e-06 0.000000e+00 9.305989e-01 5.773503e-01 -1.500000e+00
123 1 1.300000e-05 1.500000e-06 0.000000e+00 9.314378e-01 5.773503e-01 1.500000e+00
124 1 1.350000e-05 1.500000e-06 0.000000e+00 9.349297e-01 5.773503e-01 -1.500000e+00
125 1 1.400000e-05 1.500000e-06 0.000000e+00 9.366623e-01 5.773503e-01 1.500000e+00
126 1 1.450000e-05 1.500000e-06 0.000000e+00 9.464487e-01 5.773503e-01 -1.500000e+00
127 1 1.500000e-05 1.500000e-06 0.000000e+00 9.495449e-01 5.773503e-01 1.500000e+00
128 1 1.550000e-05 1.500000e-06 0.000000e+00 9.702944e-01 8.164966e-01 -1.500000e+00
129 1 0.000000e+00 2.000000e-06 0.000000e+00 9.666976e-01 8.164966e-01 -1.500000e+00
130 1 5.000000e-07 2.000000e-06 0.000000e+00 9.458399e-01 5.773503e-01 1.500000e+00
131 1 1.000000e-06 2.000000e-06 0.000000e+00 9.410439e-01 5.773503e-01 -1.500000e+00
132 1 1.500000e-06 2.000000e-06 0.000000e+00 9.317082e-01 5.773503e-01 1.500000e+00
133 1 2.000000e-06 2.000000e-06 0.000000e+00 9.309036e-01 5.773503e-01 -1.500000e+00
134 1 2.500000e-06 2.000000e-06 0.000000e+00 9.278641e-01 5.773503e-01 1.500000e+00
135 1 3.000000e-06 2.000000e-06 0.000000e+00 9.281076e-01 5.773503e-01 -1.500000e+00
136 1 3.500000e-06 2.000000e-06 0.000000e+00 9.274975e-01 5.773503e-01 1.500000e+00
137 1 4.000000e-06 2.000000e-06 0.000000e+00 9.276417e-01 5.773503e-01 -1.500000e+00
138 1 4.500000e-06 2.000000e-06 0.000000e+00 9.273617e-01 5.773503e-01 1.500000e+00
139 1 5.000000e-06 2.000000e-06 0.000000e+00 9.274415e-01 5.773503e-01 -1.500000e+00
140 1 5.500000e-06 2.000000e-06 0.000000e+00 9.273021e-01 5.773503e-01 1.500000e+00
141 1 6.000000e-06 2.000000e-06 0.000000e+00 9.273627e-01 5.773503e-01 -1.500000e+00
142 1 6.500000e-06 2.000000e-06 0.000000e+00 9.272949e-01 5.773503e-01 1.500000e+00
143 1 7.000000e-06 2.000000e-06 0.000000e+00 9.273496e-01 5.773503e-01 -1.500000e+00
144 1 7.500000e-06 2.000000e-06 0.000000e+00 9.273318e-01 5.773503e-01 1.500000e+00
145 1 8.000000e-06 2.000000e-06 0.000000e+00 9.273840e-01 5.773503e-01 -1.500000e+00
146 1 8.500000e-06 2.000000e-06 0.000000e+00 9.274083e-01 5.773503e-01 1.500000e+00
147 1 9.000000e-06 2.000000e-06 0.000000e+00 9.274591e-01 5.773503e-01 -1.500000e+00
148 1 9.500000e-06 2.000000e-06 0.000000e+00 9.275336e-01 5.773503e-01 1.500000e+00
149 1 1.000000e-05 2.000000e-06 0.000000e+00 9.275828e-01 5.773503e-01 -1.500000e+00
150 1 1.050000e-05 2.000000e-06 0.000000e+00 9.277296e-01 5.773503e-01 1.500000e+00
151 1 1.100000e-05 2.000000e-06 0.000000e+00 9.277886e-01 5.773503e-01 -1.500000e+00
152 1 1.150000e-05 2.000000e-06 0.000000e+00 9.280759e-01 5.773503e-01 1.500000e+00
153 1 1.200000e-05 2.000000e-06 0.000000e+00 9.282093e-01 5.773503e-01 -1.500000e+00
154 1 1.250000e-05 2.000000e-06 0.000000e+00 9.293877e-01 5.773503e-01 1.500000e+00
155 1 1.300000e-05 2.000000e-06 0.000000e+00 9.302773e-01 5.773503e-01 -1.500000e+00
156 1 1.350000e-05 2.000000e-06 0.000000e+00 9.340156e-01 5.773503e-01 1.500000e+00
157 1 1.400000e-05 2.000000e-06 0.000000e+00 9.359203e-01 5.773503e-01 -1.500000e+00
158 1 1.450000e-05 2.000000e-06 0.000000e+00 9.455432e-01 5.773503e-01 1.500000e+00
159 1 1.500000e-05 2.000000e-06 0.000000e+00 9.485636e-01 5.773503e-01 -1.500000e+00
160 1 1.550000e-05 2.000000e-06 0.000000e+00 9.690456e-01 8.164966e-01 1.500000e+00
161 1 0.000000e+00 2.500000e-06 0.000000e+00 9.688830e-01 8.164966e-01 1.500000e+00
162 1 5.000000e-07 2.500000e-06 0.000000e+00 9.470156e-01 5.773503e-01 -1.500000e+00
163 1 1.000000e-06 2.500000e-06 0.000000e+00 9.424102e-01 5.773503e-01 1.500000e+00
164 1 1.500000e-06 2.500000e-06 0.000000e+00 9.322163e-01 5.773503e-01 -1.500000e+00
165 1 2.000000e-06 2.500000e-06 0.000000e+00 9.309852e-01 5.773503e-01 1.500000e+00
166 1 2.500000e-06 2.500000e-06 0.000000e+00 9.280371e-01 5.773503e-01 -1.500000e+00
167 1 3.000000e-06 2.500000e-06 0.000000e+00 9.282006e-01 5.773503e-01 1.500000e+00
168 1 3.500000e-06 2.500000e-06 0.000000e+00 9.276524e-01 5.773503e-01 -1.500000e+00
169 1 4.000000e-06 2.500000e-06 0.000000e+00 9.277353e-01 5.773503e-01 1.500000e+00
170 1 4.500000e-06 2.500000e-06 0.000000e+00 9.275302e-01 5.773503e-01 -1.500000e+00
171 1 5.000000e-06 2.500000e-06 0.000000e+00 9.275744e-01 5.773503e-01 1.500000e+00
172 1 5.500000e-06 2.500000e-06 0.000000e+00 9.274942e-01 5.773503e-01 -1.500000e+00
173 1 6.000000e-06 2.500000e-06 0.000000e+00 9.275341e-01 5.773503e-01 1.500000e+00
174 1 6.500000e-06 2.500000e-06 0.000000e+00 9.274996e-01 5.773503e-01 -1.500000e+00
175 1 7.000000e-06 2.500000e-06 0.000000e+00 9.275462e-01 5.773503e-01 1.500000e+00
176 1 7.500000e-06 2.500000e-06 0.000000e+00 9.275389e-01 5.773503e-01 -1.500000e+00
177 1 8.000000e-06 2.500000e-06 0.000000e+00 9.275938e-01 5.773503e-01 1.500000e+00
178 1 8.500000e-06 2.500000e-06 0.000000e+00 9.276075e-01 5.773503e-01 -1.500000e+00
179 1 9.000000e-06 2.500000e-06 0.000000e+00 9.276676e-01 5.773503e-01 1.500000e+00
180 1 9.500000e-06 2.500000e-06 0.000000e+00 9.277061e-01 5.773503e-01 -1.500000e+00
181 1 1.000000e-05 2.500000e-06 0.000000e+00 9.277742e-01 5.773503e-01 1.500000e+00
182 1 1.050000e-05 2.500000e-06 0.000000e+00 9.278604e-01 5.773503e-01 -1.500000e+00
183 1 1.100000e-05 2.500000e-06 0.000000e+00 9.279487e-01 5.773503e-01 1.500000e+00
184 1 1.150000e-05 2.500000e-06 0.000000e+00 9.281594e-01 5.773503e-01 -1.500000e+00
185 1 1.200000e-05 2.500000e-06 0.000000e+00 9.283244e-01 5.773503e-01 1.500000e+00
186 1 1.250000e-05 2.500000e-06 0.000000e+00 9.291142e-01 5.773503e-01 -1.500000e+00
187 1 1.300000e-05 2.500000e-06 0.000000e+00 9.302534e-01 5.773503e-01 1.500000e+00
188 1 1.350000e-05 2.500000e-06 0.000000e+00 9.340416e-01 5.773503e-01 -1.500000e+00
189 1 1.400000e-05 2.500000e-06 0.000000e+00 9.364467e-01 5.773503e-01 1.500000e+00
190 1 1.450000e-05 2.500000e-06 0.000000e+00 9.469245e-01 5.773503e-01 -1.500000e+00
191 1 1.500000e-05 2.500000e-06 0.000000e+00 9.506666e-01 5.773503e-01 1.500000e+00
192 1 1.550000e-05 2.500000e-06 0.000000e+00 9.713992e-01 8.164966e-01 -1.500000e+00
193 1 0.000000e+00 3.000000e-06 0.000000e+00 9.685310e-01 8.164966e-01 -1.500000e+00
194 1 5.000000e-07 3.000000e-06 0.000000e+00 9.467137e-01 5.773503e-01 1.500000e+00
195 1 1.000000e-06 3.000000e-06 0.000000e+00 9.417338e-01 5.773503e-01 -1.500000e+00
196 1 1.500000e-06 3.000000e-06 0.000000e+00 9.316896e-01 5.773503e-01 1.500000e+00
197 1 2.000000e-06 3.000000e-06 0.000000e+00 9.304173e-01 5.773503e-01 -1.500000e+00
198 1 2.500000e-06 3.000000e-06 0.000000e+00 9.277145e-01 5.773503e-01 1.500000e+00
199 1 3.000000e-06 3.000000e-06 0.000000e+00 9.279653e-01 5.773503e-01 -1.500000e+00
200 1 3.500000e-06 3.000000e-06 0.000000e+00 9.273860e-01 5.773503e-01 1.500000e+00
201 1 4.000000e-06 3.000000e-06 0.000000e+00 9.275743e-01 5.773503e-01 -1.500000e+00
202 1 4.500000e-06 3.000000e-06 0.000000e+00 9.273312e-01 5.773503e-01 1.500000e+00
203 1 5.000000e-06 3.000000e-06 0.000000e+00 9.274303e-01 5.773503e-01 -1.500000e+00
204 1 5.500000e-06 3.000000e-06 0.000000e+00 9.273172e-01 5.773503e-01 1.500000e+00
205 1 6.000000e-06 3.000000e-06 0.000000e+00 9.273638e-01 5.773503e-01 -1.500000e+00
206 1 6.500000e-06 3.000000e-06 0.000000e+00 9.273113e-01 5.773503e-01 1.500000e+00
207 1 7.000000e-06 3.000000e-06 0.000000e+00 9.273396e-01 5.773503e-01 -1.500000e+00
208 1 7.500000e-06 3.000000e-06 0.000000e+00 9.273242e-01 5.773503e-01 1.500000e+00
209 1 8.000000e-06 3.000000e-06 0.000000e+00 9.273437e-01 5.773503e-01 -1.500000e+00
210 1 8.500000e-06 3.000000e-06 0.000000e+00 9.273624e-01 5.773503e-01 1.500000e+00
211 1 9.000000e-06 3.000000e-06 0.000000e+00 9.273839e-01 5.773503e-01 -1.500000e+00
212 1 9.500000e-06 3.000000e-06 0.000000e+00 9.274368e-01 5.773503e-01 1.500000e+00
213 1 1.000000e-05 3.000000e-06 0.000000e+00 9.274699e-01 5.773503e-01 -1.500000e+00
214 1 1.050000e-05 3.000000e-06 0.000000e+00 9.275871e-01 5.773503e-01 1.500000e+00
215 1 1.100000e-05 3.000000e-06 0.000000e+00 9.276706e-01 5.773503e-01 -1.500000e+00
216 1 1.150000e-05 3.000000e-06 0.000000e+00 9.279174e-01 5.773503e-01 1.500000e+00
217 1 1.200000e-05 3.000000e-06 0.000000e+00 9.281125e-01 5.773503e-01 -1.500000e+00
218 1 1.250000e-05 3.000000e-06 0.000000e+00 9.287576e-01 5.773503e-01 1.500000e+00
219 1 1.300000e-05 3.000000e-06 0.000000e+00 9.298996e-01 5.773503e-01 -1.500000e+00
220 1 1.350000e-05 3.000000e-06 0.000000e+00 9.337040e-01 5.773503e-01 1.500000e+00
221 1 1.400000e-05 3.000000e-06 0.000000e+00 9.359866e-01 5.773503e-01 -1.500000e+00
222 1 1.450000e-05 3.000000e-06 0.000000e+00 9.464165e-01 5.773503e-01 1.500000e+00
223 1 1.500000e-05 3.000000e-06 0.000000e+00 9.501728e-01 5.773503e-01 -1.500000e+00
224 1 1.550000e-05 3.000000e-06 0.000000e+00 9.710452e-01 8.164966e-01 1.500000e+00
225 1 0.000000e+00 3.500000e-06 0.000000e+00 9.692158e-01 8.164966e-01 1.500000e+00
226 1 5.000000e-07 3.500000e-06 0.000000e+00 9.473890e-01 5.773503e-01 -1.500000e+00
227 1 1.000000e-06 3.500000e-06 0.000000e+00 9.426600e-01 5.773503e-01 1.500000e+00
228 1 1.500000e-06 3.500000e-06 0.000000e+00 9.321151e-01 5.773503e-01 -1.500000e+00
229 1 2.000000e-06 3.500000e-06 0.000000e+00 9.308330e-01 5.773503e-01 1.500000e+00
230 1 2.500000e-06 3.500000e-06 0.000000e+00 9.278257e-01 5.773503e-01 -1.500000e+00
231 1 3.000000e-06 3.500000e-06 0.000000e+00 9.280550e-01 5.773503e-01 1.500000e+00
232 1 3.500000e-06 3.500000e-06 0.000000e+00 9.274508e-01 5.773503e-01 -1.500000e+00
233 1 4.000000e-06 3.500000e-06 0.000000e+00 9.276022e-01 5.773503e-01 1.500000e+00
234 1 4.500000e-06 3.500000e-06 0.000000e+00 9.273822e-01 5.773503e-01 -1.500000e+00
235 1 5.000000e-06 3.500000e-06 0.000000e+00 9.274486e-01 5.773503e-01 1.500000e+00
236 1 5.500000e-06 3.500000e-06 0.000000e+00 9.273646e-01 5.773503e-01 -1.500000e+00
237 1 6.000000e-06 3.500000e-06 0.000000e+00 9.273882e-01 5.773503e-01 1.500000e+00
238 1 6.500000e-06 3.500000e-06 0.000000e+00 9.273555e-01 5.773503e-01 -1.500000e+00
239 1 7.000000e-06 3.500000e-06 0.000000e+00 9.273726e-01 5.773503e-01 1.500000e+00
240 1 7.500000e-06 3.500000e-06 0.000000e+00 9.273626e-01 5.773503e-01 -1.500000e+00
241 1 8.000000e-06 3.500000e-06 0.000000e+00 9.273820e-01 5.773503e-01 1.500000e+00
242 1 8.500000e-06 3.500000e-06 0.000000e+00 9.273893e-01 5.773503e-01 -1.500000e+00
243 1 9.000000e-06 3.500000e-06 0.000000e+00 9.274172e-01 5.773503e-01 1.500000e+00
244 1 9.500000e-06 3.500000e-06 0.000000e+00 9.274498e-01 5.773503e-01 -1.500000e+00
245 1 1.000000e-05 3.500000e-06 0.000000e+00 9.274978e-01 5.773503e-01 1.500000e+00
246 1 1.050000e-05 3.500000e-06 0.000000e+00 9.275836e-01 5.773503e-01 -1.500000e+00
247 1 1.100000e-05 3.500000e-06 0.000000e+00 9.276876e-01 5.773503e-01 1.500000e+00
248 1 1.150000e-05 3.500000e-06 0.000000e+00 9.279169e-01 5.773503e-01 -1.500000e+00
249 1 1.200000e-05 3.500000e-06 0.000000e+00 9.281338e-01 5.773503e-01 1.500000e+00
250 1 1.250000e-05 3.500000e-06 0.000000e+00 9.287608e-01 5.773503e-01 -1.500000e+00
251 1 1.300000e-05 3.500000e-06 0.000000e+00 9.300104e-01 5.773503e-01 1.500000e+00
252 1 1.350000e-05 3.500000e-06 0.000000e+00 9.341016e-01 5.773503e-01 -1.500000e+00
253 1 1.400000e-05 3.500000e-06 0.000000e+00 9.365917e-01 5.773503e-01 1.500000e+00
254 1 1.450000e-05 3.500000e-06 0.000000e+00 9.474235e-01 5.773503e-01 -1.500000e+00
255 1 1.500000e-05 3.500000e-06 0.000000e+00 9.512586e-01 5.773503e-01 1.500000e+00
256 1 1.550000e-05 3.500000e-06 0.000000e+00 9.718343e-01 8.164966e-01 -1.500000e+00
257 1 0.000000e+00 4.000000e-06 0.000000e+00 9.691086e-01 8.164966e-01 -1.500000e+00
258 1 5.000000e-07 4.000000e-06 0.000000e+00 9.472674e-01 5.773503e-01 1.500000e+00
259 1 1.000000e-06 4.000000e-06 0.000000e+00 9.424166e-01 5.773503e-01 -1.500000e+00
260 1 1.500000e-06 4.000000e-06 0.000000e+00 9.319307e-01 5.773503e-01 1.500000e+00
261 1 2.000000e-06 4.000000e-06 0.000000e+00 9.304513e-01 5.773503e-01 -1.500000e+00
262 1 2.500000e-06 4.000000e-06 0.000000e+00 9.276675e-01 5.773503e-01 1.500000e+00
263 1 3.000000e-06 4.000000e-06 0.000000e+00 9.278784e-01 5.773503e-01 -1.500000e+00
264 1 3.500000e-06 4.000000e-06 0.000000e+00 9.272689e-01 5.773503e-01 1.500000e+00
265 1 4.000000e-06 4.000000e-06 0.000000e+00 9.274545e-01 5.773503e-01 -1.500000e+00
266 1 4.500000e-06 4.000000e-06 0.000000e+00 9.272195e-01 5.773503e-01 1.500000e+00
267 1 5.000000e-06 4.000000e-06 0.000000e+00 9.273374e-01 5.773503e-01 -1.500000e+00
268 1 5.500000e-06 4.000000e-06 0.000000e+00 9.272374e-01 5.773503e-01 1.500000e+00
269 1 6.000000e-06 4.000000e-06 0.000000e+00 9.272901e-01 5.773503e-01 -1.500000e+00
270 1 6.500000e-06 4.000000e-06 0.000000e+00 9.272460e-01 5.773503e-01 1.500000e+00
271 1 7.000000e-06 4.000000e-06 0.000000e+00 9.272703e-01 5.773503e-01 -1.500000e+00
272 1 7.500000e-06 4.000000e-06 0.000000e+00 9.272572e-01 5.773503e-01 1.500000e+00
273 1 8.000000e-06 4.000000e-06 0.000000e+00 9.272687e-01 5.773503e-01 -1.500000e+00
274 1 8.500000e-06 4.000000e-06 0.000000e+00 9.272807e-01 5.773503e-01 1.500000e+00
275 1 9.000000e-06 4.000000e-06 0.000000e+00 9.272974e-01 5.773503e-01 -1.500000e+00
276 1 9.500000e-06 4.000000e-06 0.000000e+00 9.273404e-01 5.773503e-01 1.500000e+00
277 1 1.000000e-05 4.000000e-06 0.000000e+00 9.273858e-01 5.773503e-01 -1.500000e+00
278 1 1.050000e-05 4.000000e-06 0.000000e+00 9.274872e-01 5.773503e-01 1.500000e+00
279 1 1.100000e-05 4.000000e-06 0.000000e+00 9.275953e-01 5.773503e-01 -1.500000e+00
280 1 1.150000e-05 4.000000e-06 0.000000e+00 9.278355e-01 5.773503e-01 1.500000e+00
281 1 1.200000e-05 4.000000e-06 0.000000e+00 9.280514e-01 5.773503e-01 -1.500000e+00
282 1 1.250000e-05 4.000000e-06 0.000000e+00 9.286791e-01 5.773503e-01 1.500000e+00
283 1 1.300000e-05 4.000000e-06 0.000000e+00 9.297759e-01 5.773503e-01 -1.500000e+00
284 1 1.350000e-05 4.000000e-06 0.000000e+00 9.338500e-01 5.773503e-01 1.500000e+00
285 1 1.400000e-05 4.000000e-06 0.000000e+00 9.363216e-01 5.773503e-01 -1.500000e+00
286 1 1.450000e-05 4.000000e-06 0.000000e+00 9.471677e-01 5.773503e-01 1.500000e+00
287 1 1.500000e-05 4.000000e-06 0.000000e+00 9.511198e-01 5.773503e-01 -1.500000e+00
288 1 1.550000e-05 4.000000e-06 0.000000e+00 9.717775e-01 8.164966e-01 1.500000e+00
289 1 0.000000e+00 4.500000e-06 0.000000e+00 9.693189e-01 8.164966e-01 1.500000e+00
290 1 5.000000e-07 4.500000e-06 0.000000e+00 9.475956e-01 5.773503e-01 -1.500000e+00
291 1 1.000000e-06 4.500000e-06 0.000000e+00 9.428886e-01 5.773503e-01 1.500000e+00
292 1 1.500000e-06 4.500000e-06 0.000000e+00 9.322139e-01 5.773503e-01 -1.500000e+00
293 1 2.000000e-06 4.500000e-06 0.000000e+00 9.308317e-01 5.773503e-01 1.500000e+00
294 1 2.500000e-06 4.500000e-06 0.000000e+00 9.277392e-01 5.773503e-01 -1.500000e+00
295 1 3.000000e-06 4.500000e-06 0.000000e+00 9.279578e-01 5.773503e-01 1.500000e+00
296 1 3.500000e-06 4.500000e-06 0.000000e+00 9.272976e-01 5.773503e-01 -1.500000e+00
297 1 4.000000e-06 4.500000e-06 0.000000e+00 9.274708e-01 5.773503e-01 1.500000e+00
298 1 4.500000e-06 4.500000e-06 0.000000e+00 9.272266e-01 5.773503e-01 -1.500000e+00
299 1 5.000000e-06 4.500000e-06 0.000000e+00 9.273241e-01 5.773503e-01 1.500000e+00
300 1 5.500000e-06 4.500000e-06 0.000000e+00 9.272315e-01 5.773503e-01 -1.500000e+00
301 1 6.000000e-06 4.500000e-06 0.000000e+00 9.272690e-01 5.773503e-01 1.500000e+00
302 1 6.500000e-06 4.500000e-06 0.000000e+00 9.272355e-01 5.773503e-01 -1.500000e+00
303 1 7.000000e-06 4.500000e-06 0.000000e+00 9.272514e-01 5.773503e-01 1.500000e+00
304 1 7.500000e-06 4.500000e-06 0.000000e+00 9.272434e-01 5.773503e-01 -1.500000e+00
305 1 8.000000e-06 4.500000e-06 0.000000e+00 9.272549e-01 5.773503e-01 1.500000e+00
306 1 8.500000e-06 4.500000e-06 0.000000e+00 9.272607e-01 5.773503e-01 -1.500000e+00
307 1 9.000000e-06 4.500000e-06 0.000000e+00 9.272797e-01 5.773503e-01 1.500000e+00
308 1 9.500000e-06 4.500000e-06 0.000000e+00 9.273128e-01 5.773503e-01 -1.500000e+00
309 1 1.000000e-05 4.500000e-06 0.000000e+00 9.273660e-01 5.773503e-01 1.500000e+00
310 1 1.050000e-05 4.500000e-06 0.000000e+00 9.274605e-01 5.773503e-01 -1.500000e+00
311 1 1.100000e-05 4.500000e-06 0.000000e+00 9.275795e-01 5.773503e-01 1.500000e+00
312 1 1.150000e-05 4.500000e-06 0.000000e+00 9.278358e-01 5.773503e-01 -1.500000e+00
313 1 1.200000e-05 4.500000e-06 0.000000e+00 9.280646e-01 5.773503e-01 1.500000e+00
314 1 1.250000e-05 4.500000e-06 0.000000e+00 9.287450e-01 5.773503e-01 -1.500000e+00
315 1 1.300000e-05 4.500000e-06 0.000000e+00 9.299577e-01 5.773503e-01 1.500000e+00
316 1 1.350000e-05 4.500000e-06 0.000000e+00 9.342611e-01 5.773503e-01 -1.500000e+00
317 1 1.400000e-05 4.500000e-06 0.000000e+00 9.367418e-01 5.773503e-01 1.500000e+00
318 1 1.450000e-05 4.500000e-06 0.000000e+00 9.477227e-01 5.773503e-01 -1.500000e+00
319 1 1.500000e-05 4.500000e-06 0.000000e+00 9.515988e-01 5.773503e-01 1.500000e+00
320 1 1.550000e-05 4.500000e-06 0.000000e+00 9.720219e-01 8.164966e-01 -1.500000e+00
321 1 0.000000e+00 5.000000e-06 0.000000e+00 9.693012e-01 8.164966e-01 -1.500000e+00
322 1 5.000000e-07 5.000000e-06 0.000000e+00 9.475722e-01 5.773503e-01 1.500000e+00
323 1 1.000000e-06 5.000000e-06 0.000000e+00 9.428064e-01 5.773503e-01 -1.500000e+00
324 1 1.500000e-06 5.000000e-06 0.000000e+00 9.321483e-01 5.773503e-01 1.500000e+00
325 1 2.000000e-06 5.000000e-06 0.000000e+00 9.306597e-01 5.773503e-01 -1.500000e+00
326 1 2.500000e-06 5.000000e-06 0.000000e+00 9.276737e-01 5.773503e-01 1.500000e+00
327 1 3.000000e-06 5.000000e-06 0.000000e+00 9.278633e-01 5.773503e-01 -1.500000e+00
328 1 3.500000e-06 5.000000e-06 0.000000e+00 9.272055e-01 5.773503e-01 1.500000e+00
329 1 4.000000e-06 5.000000e-06 0.000000e+00 9.273740e-01 5.773503e-01 -1.500000e+00
330 1 4.500000e-06 5.000000e-06 0.000000e+00 9.271205e-01 5.773503e-01 1.500000e+00
331 1 5.000000e-06 5.000000e-06 0.000000e+00 9.272419e-01 5.773503e-01 -1.500000e+00
332 1 5.500000e-06 5.000000e-06 0.000000e+00 9.271443e-01 5.773503e-01 1.500000e+00
333 1 6.000000e-06 5.000000e-06 0.000000e+00 9.272032e-01 5.773503e-01 -1.500000e+00
334 1 6.500000e-06 5.000000e-06 0.000000e+00 9.271638e-01 5.773503e-01 1.500000e+00
335 1 7.000000e-06 5.000000e-06 0.000000e+00 9.271966e-01 5.773503e-01 -1.500000e+00
336 1 7.500000e-06 5.000000e-06 0.000000e+00 9.271885e-01 5.773503e-01 1.500000e+00
337 1 8.000000e-06 5.000000e-06 0.000000e+00 9.272101e-01 5.773503e-01 -1.500000e+00
338 1 8.500000e-06 5.000000e-06 0.000000e+00 9.272207e-01 5.773503e-01 1.500000e+00
339 1 9.000000e-06 5.000000e-06 0.000000e+00 9.272427e-01 5.773503e-01 -1.500000e+00
340 1 9.500000e-06 5.000000e-06 0.000000e+00 9.272781e-01 5.773503e-01 1.500000e+00
341 1 1.000000e-05 5.000000e-06 0.000000e+00 9.273317e-01 5.773503e-01 -1.500000e+00
342 1 1.050000e-05 5.000000e-06 0.000000e+00 9.274322e-01 5.773503e-01 1.500000e+00
343 1 1.100000e-05 5.000000e-06 0.000000e+00 9.275452e-01 5.773503e-01 -1.500000e+00
344 1 1.150000e-05 5.000000e-06 0.000000e+00 9.278017e-01 5.773503e-01 1.500000e+00
345 1 1.200000e-05 5.000000e-06 0.000000e+00 9.280116e-01 5.773503e-01 -1.500000e+00
346 1 1.250000e-05 5.000000e-06 0.000000e+00 9.286907e-01 5.773503e-01 1.500000e+00
347 1 1.300000e-05 5.000000e-06 0.000000e+00 9.298085e-01 5.773503e-01 -1.500000e+00
348 1 1.350000e-05 5.000000e-06 0.000000e+00 9.341005e-01 5.773503e-01 1.500000e+00
349 1 1.400000e-05 5.000000e-06 0.000000e+00 9.366605e-01 5.773503e-01 -1.500000e+00
350 1 1.450000e-05 5.000000e-06 0.000000e+00 9.476252e-01 5.773503e-01 1.500000e+00
351 1 1.500000e-05 5.000000e-06 0.000000e+00 9.515728e-01 5.773503e-01 -1.500000e+00
352 1 1.550000e-05 5.000000e-06 0.000000e+00 9.720382e-01 8.164966e-01 1.500000e+00
353 1 0.000000e+00 5.500000e-06 0.000000e+00 9.693511e-01 8.164966e-01 1.500000e+00
354 1 5.000000e-07 5.500000e-06 0.000000e+00 9.477082e-01 5.773503e-01 -1.500000e+00