ITEM: TIMESTEP
2
ITEM: NUMBER OF ATOMS
16384
ITEM: BOX BOUNDS pp pp pp
0.0 1.600000e-05
0.0 1.600000e-05
0.0 8.000000e-06
ITEM: ATOMS id type x y z crack plastic psi
1 1 0.000000e+00 0.000000e+00 0.000000e+00 6.294140e-05 2.503547e-01 9.980469e-01
2 1 5.000000e-07 0.000000e+00 0.000000e+00 6.294146e-05 2.992563e-01 9.980469e-01
3 1 1.000000e-06 0.000000e+00 0.000000e+00 6.291702e-05 2.454642e-01 -1.001953e+00
4 1 1.500000e-06 0.000000e+00 0.000000e+00 6.036575e-05 2.023827e-01 9.980469e-01
5 1 2.000000e-06 0.000000e+00 0.000000e+00 6.036138e-05 2.021110e-01 -1.001953e+00
6 1 2.500000e-06 0.000000e+00 0.000000e+00 6.036177e-05 1.806151e-01 9.980469e-01
7 1 3.000000e-06 0.000000e+00 0.000000e+00 6.036557e-05 2.217407e-01 -1.001953e+00
8 1 3.500000e-06 0.000000e+00 0.000000e+00 6.036350e-05 2.216146e-01 9.980469e-01
9 1 4.000000e-06 0.000000e+00 0.000000e+00 6.036170e-05 2.215003e-01 -1.001953e+00
10 1 4.500000e-06 0.000000e+00 0.000000e+00 6.036590e-05 1.569579e-01 9.980469e-01
11 1 5.000000e-06 0.000000e+00 0.000000e+00 6.294147e-05 2.234574e-01 -1.001953e+00
12 1 5.500000e-06 0.000000e+00 0.000000e+00 6.294140e-05 2.055496e-01 9.980469e-01
13 1 6.000000e-06 0.000000e+00 0.000000e+00 6.036303e-05 1.752456e-01 -1.001953e+00
14 1 6.500000e-06 0.000000e+00 0.000000e+00 6.036168e-05 2.214986e-01 9.980469e-01
15 1 7.000000e-06 0.000000e+00 0.000000e+00 6.294146e-05 2.903832e-01 -1.001953e+00
16 1 7.500000e-06 0.000000e+00 0.000000e+00 6.036141e-05 2.214816e-01 9.980469e-01
17 1 8.000000e-06 0.000000e+00 0.000000e+00 6.028710e-05 1.772587e-01 9.980469e-01
18 1 8.500000e-06 0.000000e+00 0.000000e+00 6.036151e-05 2.349100e-01 -1.001953e+00
19 1 9.000000e-06 0.000000e+00 0.000000e+00 6.036966e-05 2.125819e-01 9.980469e-01
20 1 9.500000e-06 0.000000e+00 0.000000e+00 6.036770e-05 1.926250e-01 -1.001953e+00
21 1 1.000000e-05 0.000000e+00 0.000000e+00 6.294145e-05 2.782698e-01 9.980469e-01
22 1 1.050000e-05 0.000000e+00 0.000000e+00 6.291774e-05 2.361487e-01 -1.001953e+00
23 1 1.100000e-05 0.000000e+00 0.000000e+00 6.294141e-05 3.023971e-01 9.980469e-01
24 1 1.150000e-05 0.000000e+00 0.000000e+00 6.294143e-05 3.026400e-01 -1.001953e+00
25 1 1.200000e-05 0.000000e+00 0.000000e+00 6.291680e-05 2.340624e-01 9.980469e-01
26 1 1.250000e-05 0.000000e+00 0.000000e+00 6.291688e-05 2.162085e-01 -1.001953e+00
27 1 1.300000e-05 0.000000e+00 0.000000e+00 6.294141e-05 2.502111e-01 9.980469e-01
28 1 1.350000e-05 0.000000e+00 0.000000e+00 6.291653e-05 2.260401e-01 -1.001953e+00
29 1 1.400000e-05 0.000000e+00 0.000000e+00 6.036166e-05 2.076473e-01 9.980469e-01
30 1 1.450000e-05 0.000000e+00 0.000000e+00 6.035947e-05 2.019835e-01 -1.001953e+00
31 1 1.500000e-05 0.000000e+00 0.000000e+00 6.036258e-05 2.255687e-01 9.980469e-01
32 1 1.550000e-05 0.000000e+00 0.000000e+00 6.036494e-05 2.714325e-01 -1.001953e+00
33 1 0.000000e+00 5.000000e-07 0.000000e+00 6.294139e-05 2.102549e-01 -1.001953e+00
34 1 5.000000e-07 5.000000e-07 0.000000e+00 6.283560e-05 1.252233e-01 -1.001953e+00
35 1 1.000000e-06 5.000000e-07 0.000000e+00 5.519768e-05 5.810255e-02 9.980469e-01
36 1 1.500000e-06 5.000000e-07 0.000000e+00 5.770038e-05 8.118054e-02 -1.001953e+00
37 1 2.000000e-06 5.000000e-07 0.000000e+00 5.770008e-05 7.830411e-02 9.980469e-01
38 1 2.500000e-06 5.000000e-07 0.000000e+00 5.777585e-05 1.042921e-01 -1.001953e+00
39 1 3.000000e-06 5.000000e-07 0.000000e+00 5.762721e-05 4.959335e-02 9.980469e-01
40 1 3.500000e-06 5.000000e-07 0.000000e+00 5.777892e-05 1.099498e-01 -1.001953e+00
41 1 4.000000e-06 5.000000e-07 0.000000e+00 6.021003e-05 1.141271e-01 9.980469e-01
42 1 4.500000e-06 5.000000e-07 0.000000e+00 6.269114e-05 1.025622e-01 -1.001953e+00
43 1 5.000000e-06 5.000000e-07 0.000000e+00 6.013532e-05 7.850864e-02 9.980469e-01
44 1 5.500000e-06 5.000000e-07 0.000000e+00 5.516829e-05 2.425743e-02 -1.001953e+00
45 1 6.000000e-06 5.000000e-07 0.000000e+00 6.013422e-05 7.843760e-02 9.980469e-01
46 1 6.500000e-06 5.000000e-07 0.000000e+00 6.291732e-05 1.806997e-01 -1.001953e+00
47 1 7.000000e-06 5.000000e-07 0.000000e+00 6.294138e-05 2.048855e-01 9.980469e-01
48 1 7.500000e-06 5.000000e-07 0.000000e+00 6.291820e-05 1.876131e-01 -1.001953e+00
49 1 8.000000e-06 5.000000e-07 0.000000e+00 6.021236e-05 1.204356e-01 -1.001953e+00
50 1 8.500000e-06 5.000000e-07 0.000000e+00 6.036890e-05 1.687799e-01 9.980469e-01
51 1 9.000000e-06 5.000000e-07 0.000000e+00 5.778665e-05 1.104084e-01 -1.001953e+00
52 1 9.500000e-06 5.000000e-07 0.000000e+00 6.036631e-05 1.741763e-01 9.980469e-01
53 1 1.000000e-05 5.000000e-07 0.000000e+00 5.778136e-05 1.049064e-01 -1.001953e+00
54 1 1.050000e-05 5.000000e-07 0.000000e+00 6.035974e-05 1.732075e-01 9.980469e-01
55 1 1.100000e-05 5.000000e-07 0.000000e+00 6.291754e-05 1.923679e-01 -1.001953e+00
56 1 1.150000e-05 5.000000e-07 0.000000e+00 6.276590e-05 1.313313e-01 9.980469e-01
57 1 1.200000e-05 5.000000e-07 0.000000e+00 5.519595e-05 6.480611e-02 -1.001953e+00
58 1 1.250000e-05 5.000000e-07 0.000000e+00 6.286184e-05 1.519925e-01 9.980469e-01
59 1 1.300000e-05 5.000000e-07 0.000000e+00 6.286577e-05 1.990750e-01 -1.001953e+00
60 1 1.350000e-05 5.000000e-07 0.000000e+00 6.284089e-05 1.572324e-01 9.980469e-01
61 1 1.400000e-05 5.000000e-07 0.000000e+00 6.028659e-05 1.333521e-01 -1.001953e+00
62 1 1.450000e-05 5.000000e-07 0.000000e+00 6.284192e-05 1.573487e-01 9.980469e-01
63 1 1.500000e-05 5.000000e-07 0.000000e+00 6.294137e-05 2.104273e-01 -1.001953e+00
64 1 1.550000e-05 5.000000e-07 0.000000e+00 6.036626e-05 2.217819e-01 9.980469e-01
65 1 0.000000e+00 1.000000e-06 0.000000e+00 6.035926e-05 2.019687e-01 9.980469e-01
66 1 5.000000e-07 1.000000e-06 0.000000e+00 6.035597e-05 1.674801e-01 -1.001953e+00
67 1 1.000000e-06 1.000000e-06 0.000000e+00 5.762536e-05 5.495567e-02 -1.001953e+00
68 1 1.500000e-06 1.000000e-06 0.000000e+00 5.519783e-05 5.811192e-02 9.980469e-01
69 1 2.000000e-06 1.000000e-06 0.000000e+00 5.767649e-05 4.772186e-02 -1.001953e+00
70 1 2.500000e-06 1.000000e-06 0.000000e+00 5.762590e-05 4.950720e-02 9.980469e-01
71 1 3.000000e-06 1.000000e-06 0.000000e+00 5.260996e-05 6.293042e-05 -1.001953e+00
72 1 3.500000e-06 1.000000e-06 0.000000e+00 6.021190e-05 1.142462e-01 9.980469e-01
73 1 4.000000e-06 1.000000e-06 0.000000e+00 6.036137e-05 1.751388e-01 -1.001953e+00
74 1 4.500000e-06 1.000000e-06 0.000000e+00 6.294142e-05 2.114200e-01 -1.001953e+00
75 1 5.000000e-06 1.000000e-06 0.000000e+00 6.291709e-05 1.991258e-01 9.980469e-01
76 1 5.500000e-06 1.000000e-06 0.000000e+00 6.036135e-05 1.751375e-01 -1.001953e+00
77 1 6.000000e-06 1.000000e-06 0.000000e+00 6.036106e-05 1.918140e-01 9.980469e-01
78 1 6.500000e-06 1.000000e-06 0.000000e+00 6.035074e-05 1.107767e-01 9.980469e-01
79 1 7.000000e-06 1.000000e-06 0.000000e+00 5.516938e-05 2.438670e-02 -1.001953e+00
80 1 7.500000e-06 1.000000e-06 0.000000e+00 5.519449e-05 4.119138e-02 -1.001953e+00
81 1 8.000000e-06 1.000000e-06 0.000000e+00 6.025844e-05 1.147541e-01 9.980469e-01
82 1 8.500000e-06 1.000000e-06 0.000000e+00 6.035961e-05 1.492018e-01 -1.001953e+00
83 1 9.000000e-06 1.000000e-06 0.000000e+00 6.036296e-05 1.622969e-01 9.980469e-01
84 1 9.500000e-06 1.000000e-06 0.000000e+00 6.294143e-05 2.264731e-01 -1.001953e+00
85 1 1.000000e-05 1.000000e-06 0.000000e+00 5.770349e-05 8.138679e-02 9.980469e-01
86 1 1.050000e-05 1.000000e-06 0.000000e+00 6.036417e-05 1.550208e-01 -1.001953e+00
87 1 1.100000e-05 1.000000e-06 0.000000e+00 6.035964e-05 1.626933e-01 9.980469e-01
88 1 1.150000e-05 1.000000e-06 0.000000e+00 6.028414e-05 1.429232e-01 -1.001953e+00
89 1 1.200000e-05 1.000000e-06 0.000000e+00 6.033341e-05 1.345114e-01 9.980469e-01
90 1 1.250000e-05 1.000000e-06 0.000000e+00 6.286577e-05 1.968214e-01 -1.001953e+00
91 1 1.300000e-05 1.000000e-06 0.000000e+00 6.278934e-05 1.411678e-01 9.980469e-01
92 1 1.350000e-05 1.000000e-06 0.000000e+00 6.028801e-05 1.395729e-01 -1.001953e+00
93 1 1.400000e-05 1.000000e-06 0.000000e+00 6.035757e-05 1.437869e-01 9.980469e-01
94 1 1.450000e-05 1.000000e-06 0.000000e+00 6.293818e-05 1.970540e-01 -1.001953e+00
95 1 1.500000e-05 1.000000e-06 0.000000e+00 6.291744e-05 1.862303e-01 9.980469e-01
96 1 1.550000e-05 1.000000e-06 0.000000e+00 6.294147e-05 2.754074e-01 -1.001953e+00
97 1 0.000000e+00 1.500000e-06 0.000000e+00 6.036102e-05 2.214556e-01 -1.001953e+00
98 1 5.000000e-07 1.500000e-06 0.000000e+00 6.036065e-05 1.800819e-01 9.980469e-01
99 1 1.000000e-06 1.500000e-06 0.000000e+00 6.035198e-05 1.108594e-01 9.980469e-01
100 1 1.500000e-06 1.500000e-06 0.000000e+00 6.291823e-05 1.992638e-01 -1.001953e+00
101 1 2.000000e-06 1.500000e-06 0.000000e+00 6.294139e-05 2.052204e-01 9.980469e-01
102 1 2.500000e-06 1.500000e-06 0.000000e+00 6.291776e-05 1.807518e-01 -1.001953e+00
103 1 3.000000e-06 1.500000e-06 0.000000e+00 6.036058e-05 1.566248e-01 9.980469e-01
104 1 3.500000e-06 1.500000e-06 0.000000e+00 6.035998e-05 1.565849e-01 -1.001953e+00
105 1 4.000000e-06 1.500000e-06 0.000000e+00 6.036666e-05 1.816257e-01 9.980469e-01
106 1 4.500000e-06 1.500000e-06 0.000000e+00 6.291043e-05 1.646878e-01 9.980469e-01
107 1 5.000000e-06 1.500000e-06 0.000000e+00 6.291665e-05 1.922689e-01 -1.001953e+00
108 1 5.500000e-06 1.500000e-06 0.000000e+00 6.036496e-05 1.569017e-01 9.980469e-01
109 1 6.000000e-06 1.500000e-06 0.000000e+00 6.033550e-05 1.340860e-01 -1.001953e+00
110 1 6.500000e-06 1.500000e-06 0.000000e+00 6.035751e-05 1.675837e-01 9.980469e-01
111 1 7.000000e-06 1.500000e-06 0.000000e+00 6.028683e-05 1.500666e-01 -1.001953e+00
112 1 7.500000e-06 1.500000e-06 0.000000e+00 6.284205e-05 1.732554e-01 9.980469e-01
113 1 8.000000e-06 1.500000e-06 0.000000e+00 6.293818e-05 1.897015e-01 -1.001953e+00
114 1 8.500000e-06 1.500000e-06 0.000000e+00 6.283910e-05 1.631751e-01 9.980469e-01
115 1 9.000000e-06 1.500000e-06 0.000000e+00 6.029399e-05 1.399209e-01 -1.001953e+00
116 1 9.500000e-06 1.500000e-06 0.000000e+00 6.276394e-05 1.311141e-01 9.980469e-01
117 1 1.000000e-05 1.500000e-06 0.000000e+00 5.770088e-05 8.381259e-02 -1.001953e+00
118 1 1.050000e-05 1.500000e-06 0.000000e+00 6.028526e-05 1.411759e-01 9.980469e-01
119 1 1.100000e-05 1.500000e-06 0.000000e+00 6.036017e-05 1.565977e-01 -1.001953e+00
120 1 1.150000e-05 1.500000e-06 0.000000e+00 5.770200e-05 8.388815e-02 9.980469e-01
121 1 1.200000e-05 1.500000e-06 0.000000e+00 6.291791e-05 2.097580e-01 -1.001953e+00
122 1 1.250000e-05 1.500000e-06 0.000000e+00 6.294143e-05 2.221065e-01 9.980469e-01
123 1 1.300000e-05 1.500000e-06 0.000000e+00 6.294142e-05 2.217972e-01 -1.001953e+00
124 1 1.350000e-05 1.500000e-06 0.000000e+00 6.291422e-05 1.908699e-01 9.980469e-01
125 1 1.400000e-05 1.500000e-06 0.000000e+00 6.035823e-05 1.636585e-01 -1.001953e+00
126 1 1.450000e-05 1.500000e-06 0.000000e+00 6.294137e-05 2.264585e-01 9.980469e-01
127 1 1.500000e-05 1.500000e-06 0.000000e+00 6.036002e-05 1.565876e-01 -1.001953e+00
128 1 1.550000e-05 1.500000e-06 0.000000e+00 6.294144e-05 2.902321e-01 9.980469e-01
129 1 0.000000e+00 2.000000e-06 0.000000e+00 6.035980e-05 2.213740e-01 9.980469e-01
130 1 5.000000e-07 2.000000e-06 0.000000e+00 6.036044e-05 1.566156e-01 -1.001953e+00
131 1 1.000000e-06 2.000000e-06 0.000000e+00 6.036123e-05 1.751301e-01 9.980469e-01
132 1 1.500000e-06 2.000000e-06 0.000000e+00 6.291952e-05 2.161157e-01 9.980469e-01
133 1 2.000000e-06 2.000000e-06 0.000000e+00 6.283565e-05 1.229583e-01 -1.001953e+00
134 1 2.500000e-06 2.000000e-06 0.000000e+00 6.035930e-05 1.681879e-01 9.980469e-01
135 1 3.000000e-06 2.000000e-06 0.000000e+00 6.294134e-05 2.104374e-01 -1.001953e+00
136 1 3.500000e-06 2.000000e-06 0.000000e+00 6.036271e-05 1.567633e-01 9.980469e-01
137 1 4.000000e-06 2.000000e-06 0.000000e+00 6.291677e-05 1.806405e-01 -1.001953e+00
138 1 4.500000e-06 2.000000e-06 0.000000e+00 6.278684e-05 1.444671e-01 -1.001953e+00
139 1 5.000000e-06 2.000000e-06 0.000000e+00 6.294143e-05 2.289631e-01 9.980469e-01
140 1 5.500000e-06 2.000000e-06 0.000000e+00 6.036133e-05 1.566746e-01 -1.001953e+00
141 1 6.000000e-06 2.000000e-06 0.000000e+00 6.294133e-05 2.052161e-01 9.980469e-01
142 1 6.500000e-06 2.000000e-06 0.000000e+00 6.294081e-05 1.910308e-01 -1.001953e+00
143 1 7.000000e-06 2.000000e-06 0.000000e+00 6.036415e-05 1.753154e-01 9.980469e-01
144 1 7.500000e-06 2.000000e-06 0.000000e+00 6.036419e-05 1.734950e-01 -1.001953e+00
145 1 8.000000e-06 2.000000e-06 0.000000e+00 6.283877e-05 1.631400e-01 9.980469e-01
146 1 8.500000e-06 2.000000e-06 0.000000e+00 6.294139e-05 2.105515e-01 -1.001953e+00
147 1 9.000000e-06 2.000000e-06 0.000000e+00 6.284076e-05 1.633504e-01 9.980469e-01
148 1 9.500000e-06 2.000000e-06 0.000000e+00 5.777710e-05 1.098300e-01 -1.001953e+00
149 1 1.000000e-05 2.000000e-06 0.000000e+00 6.284108e-05 1.640649e-01 9.980469e-01
150 1 1.050000e-05 2.000000e-06 0.000000e+00 6.035952e-05 1.620697e-01 -1.001953e+00
151 1 1.100000e-05 2.000000e-06 0.000000e+00 6.036069e-05 1.621503e-01 9.980469e-01
152 1 1.150000e-05 2.000000e-06 0.000000e+00 6.028566e-05 1.394232e-01 -1.001953e+00
153 1 1.200000e-05 2.000000e-06 0.000000e+00 6.036295e-05 1.622960e-01 9.980469e-01
154 1 1.250000e-05 2.000000e-06 0.000000e+00 6.291785e-05 1.807611e-01 -1.001953e+00
155 1 1.300000e-05 2.000000e-06 0.000000e+00 6.036163e-05 1.566936e-01 9.980469e-01
156 1 1.350000e-05 2.000000e-06 0.000000e+00 6.291693e-05 1.861751e-01 -1.001953e+00
157 1 1.400000e-05 2.000000e-06 0.000000e+00 6.291584e-05 1.860479e-01 9.980469e-01
158 1 1.450000e-05 2.000000e-06 0.000000e+00 6.284155e-05 1.573084e-01 -1.001953e+00
159 1 1.500000e-05 2.000000e-06 0.000000e+00 6.035919e-05 1.565308e-01 9.980469e-01
160 1 1.550000e-05 2.000000e-06 0.000000e+00 6.291822e-05 2.496139e-01 -1.001953e+00
161 1 0.000000e+00 2.500000e-06 0.000000e+00 6.036326e-05 2.350220e-01 -1.001953e+00
162 1 5.000000e-07 2.500000e-06 0.000000e+00 6.036822e-05 1.755547e-01 9.980469e-01
163 1 1.000000e-06 2.500000e-06 0.000000e+00 6.291823e-05 1.992636e-01 -1.001953e+00
164 1 1.500000e-06 2.500000e-06 0.000000e+00 6.294141e-05 2.248168e-01 -1.001953e+00
165 1 2.000000e-06 2.500000e-06 0.000000e+00 6.286565e-05 1.819830e-01 9.980469e-01
166 1 2.500000e-06 2.500000e-06 0.000000e+00 5.777707e-05 1.105079e-01 -1.001953e+00
167 1 3.000000e-06 2.500000e-06 0.000000e+00 6.291266e-05 1.729655e-01 9.980469e-01
168 1 3.500000e-06 2.500000e-06 0.000000e+00 6.036240e-05 1.622617e-01 -1.001953e+00
169 1 4.000000e-06 2.500000e-06 0.000000e+00 6.036045e-05 1.566166e-01 9.980469e-01
170 1 4.500000e-06 2.500000e-06 0.000000e+00 6.284167e-05 1.634779e-01 -1.001953e+00
171 1 5.000000e-06 2.500000e-06 0.000000e+00 6.291406e-05 1.916388e-01 -1.001953e+00
172 1 5.500000e-06 2.500000e-06 0.000000e+00 6.028806e-05 1.463886e-01 9.980469e-01
173 1 6.000000e-06 2.500000e-06 0.000000e+00 6.294078e-05 2.037698e-01 -1.001953e+00
174 1 6.500000e-06 2.500000e-06 0.000000e+00 6.294139e-05 2.180235e-01 9.980469e-01
175 1 7.000000e-06 2.500000e-06 0.000000e+00 6.284288e-05 1.704059e-01 -1.001953e+00
176 1 7.500000e-06 2.500000e-06 0.000000e+00 6.036549e-05 1.753963e-01 9.980469e-01
177 1 8.000000e-06 2.500000e-06 0.000000e+00 6.036373e-05 1.697714e-01 -1.001953e+00
178 1 8.500000e-06 2.500000e-06 0.000000e+00 6.036237e-05 1.857386e-01 9.980469e-01
179 1 9.000000e-06 2.500000e-06 0.000000e+00 6.028197e-05 1.248517e-01 -1.001953e+00
180 1 9.500000e-06 2.500000e-06 0.000000e+00 6.276487e-05 1.441819e-01 9.980469e-01
181 1 1.000000e-05 2.500000e-06 0.000000e+00 6.013276e-05 7.834060e-02 -1.001953e+00
182 1 1.050000e-05 2.500000e-06 0.000000e+00 6.035691e-05 1.648540e-01 9.980469e-01
183 1 1.100000e-05 2.500000e-06 0.000000e+00 6.036069e-05 1.732700e-01 -1.001953e+00
184 1 1.150000e-05 2.500000e-06 0.000000e+00 6.036147e-05 1.622014e-01 9.980469e-01
185 1 1.200000e-05 2.500000e-06 0.000000e+00 6.036314e-05 1.752515e-01 -1.001953e+00
186 1 1.250000e-05 2.500000e-06 0.000000e+00 6.036326e-05 1.752602e-01 9.980469e-01
187 1 1.300000e-05 2.500000e-06 0.000000e+00 6.033356e-05 1.406717e-01 -1.001953e+00
188 1 1.350000e-05 2.500000e-06 0.000000e+00 6.294136e-05 2.047070e-01 9.980469e-01
189 1 1.400000e-05 2.500000e-06 0.000000e+00 6.291611e-05 1.860775e-01 -1.001953e+00
190 1 1.450000e-05 2.500000e-06 0.000000e+00 6.028648e-05 1.462891e-01 9.980469e-01
191 1 1.500000e-05 2.500000e-06 0.000000e+00 6.036010e-05 1.800445e-01 -1.001953e+00
192 1 1.550000e-05 2.500000e-06 0.000000e+00 6.284008e-05 2.119810e-01 9.980469e-01
193 1 0.000000e+00 3.000000e-06 0.000000e+00 6.035998e-05 2.348087e-01 -1.001953e+00
194 1 5.000000e-07 3.000000e-06 0.000000e+00 6.028872e-05 1.464292e-01 9.980469e-01
195 1 1.000000e-06 3.000000e-06 0.000000e+00 6.036107e-05 1.801096e-01 -1.001953e+00
196 1 1.500000e-06 3.000000e-06 0.000000e+00 6.291952e-05 1.994237e-01 9.980469e-01
197 1 2.000000e-06 3.000000e-06 0.000000e+00 6.020796e-05 1.071755e-01 -1.001953e+00
198 1 2.500000e-06 3.000000e-06 0.000000e+00 6.025852e-05 1.074852e-01 9.980469e-01
199 1 3.000000e-06 3.000000e-06 0.000000e+00 6.035837e-05 1.692705e-01 -1.001953e+00
200 1 3.500000e-06 3.000000e-06 0.000000e+00 6.291634e-05 1.861057e-01 9.980469e-01
201 1 4.000000e-06 3.000000e-06 0.000000e+00 6.036244e-05 1.567457e-01 -1.001953e+00
202 1 4.500000e-06 3.000000e-06 0.000000e+00 6.036167e-05 1.566967e-01 9.980469e-01
203 1 5.000000e-06 3.000000e-06 0.000000e+00 6.294144e-05 2.237373e-01 -1.001953e+00
204 1 5.500000e-06 3.000000e-06 0.000000e+00 6.036489e-05 1.803505e-01 9.980469e-01
205 1 6.000000e-06 3.000000e-06 0.000000e+00 6.035901e-05 1.559764e-01 -1.001953e+00
206 1 6.500000e-06 3.000000e-06 0.000000e+00 6.291430e-05 1.799588e-01 9.980469e-01
207 1 7.000000e-06 3.000000e-06 0.000000e+00 6.294146e-05 2.283871e-01 -1.001953e+00
208 1 7.500000e-06 3.000000e-06 0.000000e+00 6.021626e-05 1.022089e-01 9.980469e-01
209 1 8.000000e-06 3.000000e-06 0.000000e+00 5.512266e-05 2.927501e-02 -1.001953e+00
210 1 8.500000e-06 3.000000e-06 0.000000e+00 6.013169e-05 7.826724e-02 9.980469e-01
211 1 9.000000e-06 3.000000e-06 0.000000e+00 6.018171e-05 7.634422e-02 -1.001953e+00
212 1 9.500000e-06 3.000000e-06 0.000000e+00 6.028266e-05 1.301548e-01 9.980469e-01
213 1 1.000000e-05 3.000000e-06 0.000000e+00 5.519551e-05 5.251310e-02 -1.001953e+00
214 1 1.050000e-05 3.000000e-06 0.000000e+00 6.020812e-05 9.048543e-02 9.980469e-01
215 1 1.100000e-05 3.000000e-06 0.000000e+00 6.035853e-05 1.676510e-01 9.980469e-01
216 1 1.150000e-05 3.000000e-06 0.000000e+00 6.294146e-05 2.351830e-01 -1.001953e+00
217 1 1.200000e-05 3.000000e-06 0.000000e+00 6.035271e-05 1.109061e-01 -1.001953e+00
218 1 1.250000e-05 3.000000e-06 0.000000e+00 6.027848e-05 9.883612e-02 9.980469e-01
219 1 1.300000e-05 3.000000e-06 0.000000e+00 6.035802e-05 1.619390e-01 -1.001953e+00
220 1 1.350000e-05 3.000000e-06 0.000000e+00 6.291581e-05 1.935044e-01 -1.001953e+00
221 1 1.400000e-05 3.000000e-06 0.000000e+00 6.036390e-05 1.919951e-01 9.980469e-01
222 1 1.450000e-05 3.000000e-06 0.000000e+00 6.036066e-05 1.867975e-01 9.980469e-01
223 1 1.500000e-05 3.000000e-06 0.000000e+00 6.291751e-05 1.991760e-01 -1.001953e+00
224 1 1.550000e-05 3.000000e-06 0.000000e+00 6.294146e-05 2.989239e-01 9.980469e-01
225 1 0.000000e+00 3.500000e-06 0.000000e+00 6.036166e-05 2.214978e-01 9.980469e-01
226 1 5.000000e-07 3.500000e-06 0.000000e+00 6.036071e-05 1.566334e-01 -1.001953e+00
227 1 1.000000e-06 3.500000e-06 0.000000e+00 6.035898e-05 1.565165e-01 9.980469e-01
228 1 1.500000e-06 3.500000e-06 0.000000e+00 6.036008e-05 1.621095e-01 -1.001953e+00
229 1 2.000000e-06 3.500000e-06 0.000000e+00 6.028428e-05 1.332001e-01 9.980469e-01
230 1 2.500000e-06 3.500000e-06 0.000000e+00 6.276686e-05 1.259560e-01 -1.001953e+00
231 1 3.000000e-06 3.500000e-06 0.000000e+00 6.279006e-05 1.616297e-01 9.980469e-01
232 1 3.500000e-06 3.500000e-06 0.000000e+00 6.286570e-05 1.880000e-01 -1.001953e+00
233 1 4.000000e-06 3.500000e-06 0.000000e+00 6.036288e-05 1.752362e-01 9.980469e-01
234 1 4.500000e-06 3.500000e-06 0.000000e+00 6.013644e-05 7.857918e-02 -1.001953e+00
235 1 5.000000e-06 3.500000e-06 0.000000e+00 6.036610e-05 1.754322e-01 9.980469e-01
236 1 5.500000e-06 3.500000e-06 0.000000e+00 6.294146e-05 2.234737e-01 -1.001953e+00
237 1 6.000000e-06 3.500000e-06 0.000000e+00 6.036148e-05 1.622019e-01 9.980469e-01
238 1 6.500000e-06 3.500000e-06 0.000000e+00 6.036622e-05 1.624951e-01 -1.001953e+00
239 1 7.000000e-06 3.500000e-06 0.000000e+00 6.036097e-05 1.621684e-01 9.980469e-01
240 1 7.500000e-06 3.500000e-06 0.000000e+00 5.777502e-05 9.422220e-02 -1.001953e+00
241 1 8.000000e-06 3.500000e-06 0.000000e+00 6.284272e-05 1.685926e-01 9.980469e-01
242 1 8.500000e-06 3.500000e-06 0.000000e+00 6.025517e-05 8.325632e-02 -1.001953e+00
243 1 9.000000e-06 3.500000e-06 0.000000e+00 6.294135e-05 2.046233e-01 9.980469e-01
244 1 9.500000e-06 3.500000e-06 0.000000e+00 6.025860e-05 1.053505e-01 -1.001953e+00
245 1 1.000000e-05 3.500000e-06 0.000000e+00 5.770437e-05 8.144228e-02 9.980469e-01
246 1 1.050000e-05 3.500000e-06 0.000000e+00 5.261719e-05 5.213467e-04 -1.001953e+00
247 1 1.100000e-05 3.500000e-06 0.000000e+00 6.021131e-05 1.074291e-01 9.980469e-01
248 1 1.150000e-05 3.500000e-06 0.000000e+00 6.294144e-05 2.237464e-01 -1.001953e+00
249 1 1.200000e-05 3.500000e-06 0.000000e+00 6.035971e-05 1.565663e-01 9.980469e-01
250 1 1.250000e-05 3.500000e-06 0.000000e+00 6.291792e-05 1.807694e-01 -1.001953e+00
251 1 1.300000e-05 3.500000e-06 0.000000e+00 6.036052e-05 1.788049e-01 9.980469e-01
252 1 1.350000e-05 3.500000e-06 0.000000e+00 6.028465e-05 1.393897e-01 -1.001953e+00
253 1 1.400000e-05 3.500000e-06 0.000000e+00 6.020915e-05 8.935357e-02 9.980469e-01
254 1 1.450000e-05 3.500000e-06 0.000000e+00 5.777868e-05 1.047384e-01 -1.001953e+00
255 1 1.500000e-05 3.500000e-06 0.000000e+00 5.777581e-05 9.106002e-02 9.980469e-01
256 1 1.550000e-05 3.500000e-06 0.000000e+00 6.291768e-05 2.162950e-01 -1.001953e+00
257 1 0.000000e+00 4.000000e-06 0.000000e+00 6.036044e-05 2.298868e-01 -1.001953e+00
258 1 5.000000e-07 4.000000e-06 0.000000e+00 6.036397e-05 1.623598e-01 9.980469e-01
259 1 1.000000e-06 4.000000e-06 0.000000e+00 6.036207e-05 1.622402e-01 -1.001953e+00
260 1 1.500000e-06 4.000000e-06 0.000000e+00 6.036313e-05 1.734291e-01 9.980469e-01
261 1 2.000000e-06 4.000000e-06 0.000000e+00 6.035565e-05 1.586073e-01 -1.001953e+00
262 1 2.500000e-06 4.000000e-06 0.000000e+00 6.036652e-05 1.921524e-01 9.980469e-01
263 1 3.000000e-06 4.000000e-06 0.000000e+00 6.291566e-05 1.801205e-01 9.980469e-01
264 1 3.500000e-06 4.000000e-06 0.000000e+00 6.035635e-05 1.558005e-01 -1.001953e+00
265 1 4.000000e-06 4.000000e-06 0.000000e+00 6.036133e-05 1.801262e-01 9.980469e-01
266 1 4.500000e-06 4.000000e-06 0.000000e+00 6.294145e-05 2.236898e-01 -1.001953e+00
267 1 5.000000e-06 4.000000e-06 0.000000e+00 6.036317e-05 1.752546e-01 9.980469e-01
268 1 5.500000e-06 4.000000e-06 0.000000e+00 6.035959e-05 1.677188e-01 -1.001953e+00
269 1 6.000000e-06 4.000000e-06 0.000000e+00 6.294143e-05 2.343678e-01 -1.001953e+00
270 1 6.500000e-06 4.000000e-06 0.000000e+00 6.036154e-05 1.566878e-01 9.980469e-01
271 1 7.000000e-06 4.000000e-06 0.000000e+00 6.294137e-05 2.165995e-01 -1.001953e+00
272 1 7.500000e-06 4.000000e-06 0.000000e+00 6.294141e-05 2.292119e-01 9.980469e-01
273 1 8.000000e-06 4.000000e-06 0.000000e+00 6.294133e-05 2.112192e-01 -1.001953e+00
274 1 8.500000e-06 4.000000e-06 0.000000e+00 6.284259e-05 1.671576e-01 9.980469e-01
275 1 9.000000e-06 4.000000e-06 0.000000e+00 6.291633e-05 1.861040e-01 -1.001953e+00
276 1 9.500000e-06 4.000000e-06 0.000000e+00 6.036408e-05 1.568487e-01 9.980469e-01
277 1 1.000000e-05 4.000000e-06 0.000000e+00 6.036262e-05 1.567574e-01 -1.001953e+00
278 1 1.050000e-05 4.000000e-06 0.000000e+00 6.036165e-05 1.493278e-01 9.980469e-01
279 1 1.100000e-05 4.000000e-06 0.000000e+00 6.028468e-05 1.393582e-01 -1.001953e+00
280 1 1.150000e-05 4.000000e-06 0.000000e+00 6.035983e-05 1.670828e-01 9.980469e-01
281 1 1.200000e-05 4.000000e-06 0.000000e+00 6.294134e-05 2.109785e-01 -1.001953e+00
282 1 1.250000e-05 4.000000e-06 0.000000e+00 6.294136e-05 2.050425e-01 9.980469e-01
283 1 1.300000e-05 4.000000e-06 0.000000e+00 6.291796e-05 1.924190e-01 -1.001953e+00
284 1 1.350000e-05 4.000000e-06 0.000000e+00 6.036282e-05 1.635831e-01 9.980469e-01
285 1 1.400000e-05 4.000000e-06 0.000000e+00 6.036092e-05 1.751091e-01 -1.001953e+00
286 1 1.450000e-05 4.000000e-06 0.000000e+00 6.036289e-05 1.752364e-01 9.980469e-01
287 1 1.500000e-05 4.000000e-06 0.000000e+00 6.036048e-05 1.616140e-01 -1.001953e+00
288 1 1.550000e-05 4.000000e-06 0.000000e+00 6.291713e-05 2.390430e-01 9.980469e-01
289 1 0.000000e+00 4.500000e-06 0.000000e+00 6.035927e-05 1.998174e-01 9.980469e-01
290 1 5.000000e-07 4.500000e-06 0.000000e+00 6.036092e-05 1.627785e-01 -1.001953e+00
291 1 1.000000e-06 4.500000e-06 0.000000e+00 6.035904e-05 1.626516e-01 9.980469e-01
292 1 1.500000e-06 4.500000e-06 0.000000e+00 6.036059e-05 1.627567e-01 -1.001953e+00
293 1 2.000000e-06 4.500000e-06 0.000000e+00 6.286566e-05 1.762497e-01 9.980469e-01
294 1 2.500000e-06 4.500000e-06 0.000000e+00 6.035986e-05 1.695500e-01 -1.001953e+00
295 1 3.000000e-06 4.500000e-06 0.000000e+00 6.294135e-05 2.108776e-01 -1.001953e+00
296 1 3.500000e-06 4.500000e-06 0.000000e+00 6.036213e-05 1.622438e-01 9.980469e-01
297 1 4.000000e-06 4.500000e-06 0.000000e+00 6.291662e-05 1.806215e-01 -1.001953e+00
298 1 4.500000e-06 4.500000e-06 0.000000e+00 6.036316e-05 1.567904e-01 9.980469e-01
299 1 5.000000e-06 4.500000e-06 0.000000e+00 6.294136e-05 2.050920e-01 -1.001953e+00
300 1 5.500000e-06 4.500000e-06 0.000000e+00 6.036190e-05 1.635228e-01 9.980469e-01
301 1 6.000000e-06 4.500000e-06 0.000000e+00 6.028175e-05 1.237609e-01 9.980469e-01
302 1 6.500000e-06 4.500000e-06 0.000000e+00 6.036193e-05 1.683624e-01 -1.001953e+00
303 1 7.000000e-06 4.500000e-06 0.000000e+00 6.035945e-05 1.620667e-01 9.980469e-01
304 1 7.500000e-06 4.500000e-06 0.000000e+00 6.036112e-05 1.788444e-01 -1.001953e+00
305 1 8.000000e-06 4.500000e-06 0.000000e+00 6.291741e-05 2.041537e-01 9.980469e-01
306 1 8.500000e-06 4.500000e-06 0.000000e+00 6.291962e-05 1.976096e-01 -1.001953e+00
307 1 9.000000e-06 4.500000e-06 0.000000e+00 6.035884e-05 1.565068e-01 9.980469e-01
308 1 9.500000e-06 4.500000e-06 0.000000e+00 6.291782e-05 1.807556e-01 -1.001953e+00
309 1 1.000000e-05 4.500000e-06 0.000000e+00 6.028670e-05 1.394905e-01 9.980469e-01
310 1 1.050000e-05 4.500000e-06 0.000000e+00 6.036157e-05 1.788738e-01 -1.001953e+00
311 1 1.100000e-05 4.500000e-06 0.000000e+00 6.033499e-05 1.347200e-01 9.980469e-01
312 1 1.150000e-05 4.500000e-06 0.000000e+00 6.035737e-05 1.490564e-01 -1.001953e+00
313 1 1.200000e-05 4.500000e-06 0.000000e+00 6.036343e-05 1.623262e-01 9.980469e-01
314 1 1.250000e-05 4.500000e-06 0.000000e+00 6.291876e-05 1.975026e-01 -1.001953e+00
315 1 1.300000e-05 4.500000e-06 0.000000e+00 6.291303e-05 1.826717e-01 9.980469e-01
316 1 1.350000e-05 4.500000e-06 0.000000e+00 6.036392e-05 1.814618e-01 -1.001953e+00
317 1 1.400000e-05 4.500000e-06 0.000000e+00 6.036333e-05 1.752640e-01 -1.001953e+00
318 1 1.450000e-05 4.500000e-06 0.000000e+00 6.036041e-05 1.750753e-01 -1.001953e+00
319 1 1.500000e-05 4.500000e-06 0.000000e+00 6.291691e-05 1.935916e-01 -1.001953e+00
320 1 1.550000e-05 4.500000e-06 0.000000e+00 6.294148e-05 2.946430e-01 -1.001953e+00
321 1 0.000000e+00 5.000000e-06 0.000000e+00 6.036127e-05 2.299413e-01 -1.001953e+00
322 1 5.000000e-07 5.000000e-06 0.000000e+00 6.036009e-05 1.621105e-01 9.980469e-01
323 1 1.000000e-06 5.000000e-06 0.000000e+00 6.036168e-05 1.622154e-01 -1.001953e+00
324 1 1.500000e-06 5.000000e-06 0.000000e+00 6.036270e-05 1.493911e-01 9.980469e-01
325 1 2.000000e-06 5.000000e-06 0.000000e+00 6.035766e-05 1.519299e-01 -1.001953e+00
326 1 2.500000e-06 5.000000e-06 0.000000e+00 6.035871e-05 1.569941e-01 9.980469e-01
327 1 3.000000e-06 5.000000e-06 0.000000e+00 6.036470e-05 1.815091e-01 -1.001953e+00
328 1 3.500000e-06 5.000000e-06 0.000000e+00 6.291695e-05 1.806577e-01 -1.001953e+00
329 1 4.000000e-06 5.000000e-06 0.000000e+00 6.294138e-05 2.044894e-01 9.980469e-01
330 1 4.500000e-06 5.000000e-06 0.000000e+00 6.291725e-05 1.806938e-01 -1.001953e+00
331 1 5.000000e-06 5.000000e-06 0.000000e+00 6.036302e-05 1.567826e-01 9.980469e-01
332 1 5.500000e-06 5.000000e-06 0.000000e+00 6.291697e-05 1.936010e-01 -1.001953e+00
333 1 6.000000e-06 5.000000e-06 0.000000e+00 6.028574e-05 1.462410e-01 -1.001953e+00
334 1 6.500000e-06 5.000000e-06 0.000000e+00 6.036138e-05 1.621958e-01 9.980469e-01
335 1 7.000000e-06 5.000000e-06 0.000000e+00 6.036362e-05 1.568204e-01 -1.001953e+00
336 1 7.500000e-06 5.000000e-06 0.000000e+00 6.036479e-05 1.624097e-01 9.980469e-01
337 1 8.000000e-06 5.000000e-06 0.000000e+00 6.291886e-05 1.925259e-01 -1.001953e+00
338 1 8.500000e-06 5.000000e-06 0.000000e+00 6.294134e-05 2.052846e-01 9.980469e-01
339 1 9.000000e-06 5.000000e-06 0.000000e+00 6.036237e-05 1.567416e-01 -1.001953e+00
340 1 9.500000e-06 5.000000e-06 0.000000e+00 6.294131e-05 2.049017e-01 9.980469e-01
341 1 1.000000e-05 5.000000e-06 0.000000e+00 6.291540e-05 1.921337e-01 -1.001953e+00
342 1 1.050000e-05 5.000000e-06 0.000000e+00 6.291867e-05 1.980529e-01 9.980469e-01
343 1 1.100000e-05 5.000000e-06 0.000000e+00 6.294136e-05 2.110472e-01 -1.001953e+00
344 1 1.150000e-05 5.000000e-06 0.000000e+00 6.284172e-05 1.634604e-01 9.980469e-01
345 1 1.200000e-05 5.000000e-06 0.000000e+00 6.036181e-05 1.567058e-01 -1.001953e+00
346 1 1.250000e-05 5.000000e-06 0.000000e+00 6.291709e-05 1.923212e-01 9.980469e-01
347 1 1.300000e-05 5.000000e-06 0.000000e+00 6.294143e-05 2.233450e-01 -1.001953e+00
348 1 1.350000e-05 5.000000e-06 0.000000e+00 6.033449e-05 1.469381e-01 9.980469e-01
349 1 1.400000e-05 5.000000e-06 0.000000e+00 6.028792e-05 1.463802e-01 -1.001953e+00
350 1 1.450000e-05 5.000000e-06 0.000000e+00 6.035974e-05 1.682180e-01 -1.001953e+00
351 1 1.500000e-05 5.000000e-06 0.000000e+00 6.036119e-05 1.566651e-01 9.980469e-01
352 1 1.550000e-05 5.000000e-06 0.000000e+00 6.291679e-05 2.454324e-01 9.980469e-01
353 1 0.000000e+00 5.500000e-06 0.000000e+00 6.036446e-05 1.753339e-01 9.980469e-01
354 1 5.000000e-07 5.500000e-06 0.000000e+00 5.777925e-05 1.099710e-01 -1.001953e+00