ITEM: TIMESTEP
4
ITEM: NUMBER OF ATOMS
16384
ITEM: BOX BOUNDS pp pp pp
0.0 1.600000e-05
0.0 1.600000e-05
0.0 8.000000e-06
ITEM: ATOMS id type x y z crack plastic psi
1 1 0.000000e+00 0.000000e+00 0.000000e+00 1.258791e-04 4.450509e-01 9.995117e-01
2 1 5.000000e-07 0.000000e+00 0.000000e+00 1.258792e-04 4.941682e-01 9.995117e-01
3 1 1.000000e-06 0.000000e+00 0.000000e+00 1.258547e-04 4.418423e-01 -1.000488e+00
4 1 1.500000e-06 0.000000e+00 0.000000e+00 1.233034e-04 4.135765e-01 9.995117e-01
5 1 2.000000e-06 0.000000e+00 0.000000e+00 1.232990e-04 4.133982e-01 -1.000488e+00
6 1 2.500000e-06 0.000000e+00 0.000000e+00 1.232994e-04 3.992947e-01 9.995117e-01
7 1 3.000000e-06 0.000000e+00 0.000000e+00 1.233032e-04 4.262772e-01 -1.000488e+00
8 1 3.500000e-06 0.000000e+00 0.000000e+00 1.233012e-04 4.261945e-01 9.995117e-01
9 1 4.000000e-06 0.000000e+00 0.000000e+00 1.232994e-04 4.261195e-01 -1.000488e+00
10 1 4.500000e-06 0.000000e+00 0.000000e+00 1.233036e-04 3.837732e-01 9.995117e-01
11 1 5.000000e-06 0.000000e+00 0.000000e+00 1.258792e-04 4.099698e-01 -1.000488e+00
12 1 5.500000e-06 0.000000e+00 0.000000e+00 1.258791e-04 3.788496e-01 9.995117e-01
13 1 6.000000e-06 0.000000e+00 0.000000e+00 1.233007e-04 3.783381e-01 -1.000488e+00
14 1 6.500000e-06 0.000000e+00 0.000000e+00 1.232993e-04 4.261184e-01 9.995117e-01
15 1 7.000000e-06 0.000000e+00 0.000000e+00 1.258792e-04 4.713136e-01 -1.000488e+00
16 1 7.500000e-06 0.000000e+00 0.000000e+00 1.232990e-04 4.431402e-01 9.995117e-01
17 1 8.000000e-06 0.000000e+00 0.000000e+00 1.232248e-04 4.141256e-01 9.995117e-01
18 1 8.500000e-06 0.000000e+00 0.000000e+00 1.232992e-04 4.349176e-01 -1.000488e+00
19 1 9.000000e-06 0.000000e+00 0.000000e+00 1.233073e-04 4.202681e-01 9.995117e-01
20 1 9.500000e-06 0.000000e+00 0.000000e+00 1.233054e-04 4.071744e-01 -1.000488e+00
21 1 1.000000e-05 0.000000e+00 0.000000e+00 1.258792e-04 4.633660e-01 9.995117e-01
22 1 1.050000e-05 0.000000e+00 0.000000e+00 1.258556e-04 4.357303e-01 -1.000488e+00
23 1 1.100000e-05 0.000000e+00 0.000000e+00 1.258791e-04 4.791959e-01 9.995117e-01
24 1 1.150000e-05 0.000000e+00 0.000000e+00 1.258792e-04 4.793553e-01 -1.000488e+00
25 1 1.200000e-05 0.000000e+00 0.000000e+00 1.258545e-04 4.343615e-01 9.995117e-01
26 1 1.250000e-05 0.000000e+00 0.000000e+00 1.258546e-04 4.226476e-01 -1.000488e+00
27 1 1.300000e-05 0.000000e+00 0.000000e+00 1.258792e-04 4.449567e-01 9.995117e-01
28 1 1.350000e-05 0.000000e+00 0.000000e+00 1.258543e-04 4.290981e-01 -1.000488e+00
29 1 1.400000e-05 0.000000e+00 0.000000e+00 1.232993e-04 4.170306e-01 9.995117e-01
30 1 1.450000e-05 0.000000e+00 0.000000e+00 1.232972e-04 4.133146e-01 -1.000488e+00
31 1 1.500000e-05 0.000000e+00 0.000000e+00 1.233002e-04 4.287888e-01 9.995117e-01
32 1 1.550000e-05 0.000000e+00 0.000000e+00 1.233027e-04 5.219868e-01 -1.000488e+00
33 1 0.000000e+00 5.000000e-07 0.000000e+00 1.258791e-04 3.364990e-01 -1.000488e+00
34 1 5.000000e-07 5.000000e-07 0.000000e+00 1.257702e-04 2.973853e-01 -1.000488e+00
35 1 1.000000e-06 5.000000e-07 0.000000e+00 1.181354e-04 2.366718e-01 9.995117e-01
36 1 1.500000e-06 5.000000e-07 0.000000e+00 1.206380e-04 2.518133e-01 -1.000488e+00
37 1 2.000000e-06 5.000000e-07 0.000000e+00 1.206378e-04 2.499261e-01 9.995117e-01
38 1 2.500000e-06 5.000000e-07 0.000000e+00 1.207135e-04 2.669768e-01 -1.000488e+00
39 1 3.000000e-06 5.000000e-07 0.000000e+00 1.205648e-04 2.310890e-01 9.995117e-01
40 1 3.500000e-06 5.000000e-07 0.000000e+00 1.207165e-04 2.706888e-01 -1.000488e+00
41 1 4.000000e-06 5.000000e-07 0.000000e+00 1.231477e-04 2.734295e-01 9.995117e-01
42 1 4.500000e-06 5.000000e-07 0.000000e+00 1.255533e-04 2.564505e-01 -1.000488e+00
43 1 5.000000e-06 5.000000e-07 0.000000e+00 1.229216e-04 2.185811e-01 9.995117e-01
44 1 5.500000e-06 5.000000e-07 0.000000e+00 1.178791e-04 1.508729e-01 -1.000488e+00
45 1 6.000000e-06 5.000000e-07 0.000000e+00 1.229204e-04 2.117198e-01 9.995117e-01
46 1 6.500000e-06 5.000000e-07 0.000000e+00 1.258549e-04 3.171078e-01 -1.000488e+00
47 1 7.000000e-06 5.000000e-07 0.000000e+00 1.258790e-04 3.329761e-01 9.995117e-01
48 1 7.500000e-06 5.000000e-07 0.000000e+00 1.258560e-04 3.662670e-01 -1.000488e+00
49 1 8.000000e-06 5.000000e-07 0.000000e+00 1.231500e-04 3.010043e-01 -1.000488e+00
50 1 8.500000e-06 5.000000e-07 0.000000e+00 1.233063e-04 3.092873e-01 9.995117e-01
51 1 9.000000e-06 5.000000e-07 0.000000e+00 1.207242e-04 2.709897e-01 -1.000488e+00
52 1 9.500000e-06 5.000000e-07 0.000000e+00 1.233038e-04 3.128278e-01 9.995117e-01
53 1 1.000000e-05 5.000000e-07 0.000000e+00 1.207190e-04 2.673798e-01 -1.000488e+00
54 1 1.050000e-05 5.000000e-07 0.000000e+00 1.232972e-04 3.121922e-01 9.995117e-01
55 1 1.100000e-05 5.000000e-07 0.000000e+00 1.258552e-04 3.247633e-01 -1.000488e+00
56 1 1.150000e-05 5.000000e-07 0.000000e+00 1.257034e-04 2.847172e-01 9.995117e-01
57 1 1.200000e-05 5.000000e-07 0.000000e+00 1.181337e-04 2.410700e-01 -1.000488e+00
58 1 1.250000e-05 5.000000e-07 0.000000e+00 1.257994e-04 2.982730e-01 9.995117e-01
59 1 1.300000e-05 5.000000e-07 0.000000e+00 1.258035e-04 3.291639e-01 -1.000488e+00
60 1 1.350000e-05 5.000000e-07 0.000000e+00 1.257784e-04 3.017110e-01 9.995117e-01
61 1 1.400000e-05 5.000000e-07 0.000000e+00 1.232241e-04 2.860431e-01 -1.000488e+00
62 1 1.450000e-05 5.000000e-07 0.000000e+00 1.257795e-04 3.017873e-01 9.995117e-01
63 1 1.500000e-05 5.000000e-07 0.000000e+00 1.258789e-04 3.366121e-01 -1.000488e+00
64 1 1.550000e-05 5.000000e-07 0.000000e+00 1.233040e-04 4.263043e-01 9.995117e-01
65 1 0.000000e+00 1.000000e-06 0.000000e+00 1.232969e-04 3.893902e-01 9.995117e-01
66 1 5.000000e-07 1.000000e-06 0.000000e+00 1.232937e-04 3.530577e-01 9.995117e-01
67 1 1.000000e-06 1.000000e-06 0.000000e+00 1.205631e-04 2.512282e-01 -1.000488e+00
68 1 1.500000e-06 1.000000e-06 0.000000e+00 1.181356e-04 2.366780e-01 9.995117e-01
69 1 2.000000e-06 1.000000e-06 0.000000e+00 1.206144e-04 2.298611e-01 -1.000488e+00
70 1 2.500000e-06 1.000000e-06 0.000000e+00 1.205635e-04 2.310324e-01 9.995117e-01
71 1 3.000000e-06 1.000000e-06 0.000000e+00 1.155479e-04 1.985920e-01 -1.000488e+00
72 1 3.500000e-06 1.000000e-06 0.000000e+00 1.231494e-04 2.735077e-01 9.995117e-01
73 1 4.000000e-06 1.000000e-06 0.000000e+00 1.232992e-04 3.300804e-01 -1.000488e+00
74 1 4.500000e-06 1.000000e-06 0.000000e+00 1.258793e-04 3.818867e-01 9.995117e-01
75 1 5.000000e-06 1.000000e-06 0.000000e+00 1.258549e-04 3.587939e-01 -1.000488e+00
76 1 5.500000e-06 1.000000e-06 0.000000e+00 1.232990e-04 3.430552e-01 9.995117e-01
77 1 6.000000e-06 1.000000e-06 0.000000e+00 1.232957e-04 3.391373e-01 -1.000488e+00
78 1 6.500000e-06 1.000000e-06 0.000000e+00 1.232032e-04 2.011199e-01 9.995117e-01
79 1 7.000000e-06 1.000000e-06 0.000000e+00 1.180944e-04 1.563967e-01 -1.000488e+00
80 1 7.500000e-06 1.000000e-06 0.000000e+00 1.181324e-04 2.701997e-01 -1.000488e+00
81 1 8.000000e-06 1.000000e-06 0.000000e+00 1.231960e-04 2.738409e-01 9.995117e-01
82 1 8.500000e-06 1.000000e-06 0.000000e+00 1.232971e-04 2.964421e-01 -1.000488e+00
83 1 9.000000e-06 1.000000e-06 0.000000e+00 1.233006e-04 3.050337e-01 9.995117e-01
84 1 9.500000e-06 1.000000e-06 0.000000e+00 1.258790e-04 3.471398e-01 -1.000488e+00
85 1 1.000000e-05 1.000000e-06 0.000000e+00 1.206411e-04 2.519486e-01 9.995117e-01
86 1 1.050000e-05 1.000000e-06 0.000000e+00 1.233017e-04 3.002599e-01 -1.000488e+00
87 1 1.100000e-05 1.000000e-06 0.000000e+00 1.232972e-04 3.052938e-01 9.995117e-01
88 1 1.150000e-05 1.000000e-06 0.000000e+00 1.232216e-04 2.923227e-01 -1.000488e+00
89 1 1.200000e-05 1.000000e-06 0.000000e+00 1.232710e-04 2.868037e-01 9.995117e-01
90 1 1.250000e-05 1.000000e-06 0.000000e+00 1.258034e-04 3.276853e-01 -1.000488e+00
91 1 1.300000e-05 1.000000e-06 0.000000e+00 1.257270e-04 2.911710e-01 9.995117e-01
92 1 1.350000e-05 1.000000e-06 0.000000e+00 1.232255e-04 2.901245e-01 -1.000488e+00
93 1 1.400000e-05 1.000000e-06 0.000000e+00 1.232950e-04 2.928893e-01 9.995117e-01
94 1 1.450000e-05 1.000000e-06 0.000000e+00 1.258757e-04 3.278379e-01 -1.000488e+00
95 1 1.500000e-05 1.000000e-06 0.000000e+00 1.258549e-04 3.207365e-01 9.995117e-01
96 1 1.550000e-05 1.000000e-06 0.000000e+00 1.258793e-04 4.614879e-01 -1.000488e+00
97 1 0.000000e+00 1.500000e-06 0.000000e+00 1.232988e-04 4.260902e-01 -1.000488e+00
98 1 5.000000e-07 1.500000e-06 0.000000e+00 1.232982e-04 3.462992e-01 -1.000488e+00
99 1 1.000000e-06 1.500000e-06 0.000000e+00 1.232864e-04 2.824163e-01 9.995117e-01
100 1 1.500000e-06 1.500000e-06 0.000000e+00 1.258558e-04 3.292877e-01 -1.000488e+00
101 1 2.000000e-06 1.500000e-06 0.000000e+00 1.258791e-04 3.331959e-01 9.995117e-01
102 1 2.500000e-06 1.500000e-06 0.000000e+00 1.258552e-04 3.171420e-01 -1.000488e+00
103 1 3.000000e-06 1.500000e-06 0.000000e+00 1.232980e-04 3.013123e-01 9.995117e-01
104 1 3.500000e-06 1.500000e-06 0.000000e+00 1.232974e-04 3.012861e-01 -1.000488e+00
105 1 4.000000e-06 1.500000e-06 0.000000e+00 1.233042e-04 3.411511e-01 9.995117e-01
106 1 4.500000e-06 1.500000e-06 0.000000e+00 1.258482e-04 3.361991e-01 9.995117e-01
107 1 5.000000e-06 1.500000e-06 0.000000e+00 1.258542e-04 3.246984e-01 -1.000488e+00
108 1 5.500000e-06 1.500000e-06 0.000000e+00 1.233024e-04 3.014940e-01 9.995117e-01
109 1 6.000000e-06 1.500000e-06 0.000000e+00 1.232730e-04 2.933393e-01 -1.000488e+00
110 1 6.500000e-06 1.500000e-06 0.000000e+00 1.232951e-04 3.319381e-01 9.995117e-01
111 1 7.000000e-06 1.500000e-06 0.000000e+00 1.232245e-04 3.204452e-01 -1.000488e+00
112 1 7.500000e-06 1.500000e-06 0.000000e+00 1.257795e-04 3.122236e-01 9.995117e-01
113 1 8.000000e-06 1.500000e-06 0.000000e+00 1.258757e-04 3.230139e-01 -1.000488e+00
114 1 8.500000e-06 1.500000e-06 0.000000e+00 1.257765e-04 3.056099e-01 9.995117e-01
115 1 9.000000e-06 1.500000e-06 0.000000e+00 1.232314e-04 2.903528e-01 -1.000488e+00
116 1 9.500000e-06 1.500000e-06 0.000000e+00 1.257014e-04 2.845747e-01 9.995117e-01
117 1 1.000000e-05 1.500000e-06 0.000000e+00 1.206385e-04 2.535402e-01 -1.000488e+00
118 1 1.050000e-05 1.500000e-06 0.000000e+00 1.232227e-04 2.911763e-01 9.995117e-01
119 1 1.100000e-05 1.500000e-06 0.000000e+00 1.232976e-04 3.012945e-01 -1.000488e+00
120 1 1.150000e-05 1.500000e-06 0.000000e+00 1.206396e-04 2.535898e-01 9.995117e-01
121 1 1.200000e-05 1.500000e-06 0.000000e+00 1.258554e-04 3.361730e-01 -1.000488e+00
122 1 1.250000e-05 1.500000e-06 0.000000e+00 1.258790e-04 3.442748e-01 9.995117e-01
123 1 1.300000e-05 1.500000e-06 0.000000e+00 1.258790e-04 3.440719e-01 -1.000488e+00
124 1 1.350000e-05 1.500000e-06 0.000000e+00 1.258517e-04 3.237805e-01 9.995117e-01
125 1 1.400000e-05 1.500000e-06 0.000000e+00 1.232957e-04 3.059271e-01 -1.000488e+00
126 1 1.450000e-05 1.500000e-06 0.000000e+00 1.258789e-04 3.471302e-01 9.995117e-01
127 1 1.500000e-05 1.500000e-06 0.000000e+00 1.232975e-04 3.012879e-01 -1.000488e+00
128 1 1.550000e-05 1.500000e-06 0.000000e+00 1.258792e-04 4.712144e-01 9.995117e-01
129 1 0.000000e+00 2.000000e-06 0.000000e+00 1.232975e-04 4.260367e-01 9.995117e-01
130 1 5.000000e-07 2.000000e-06 0.000000e+00 1.232947e-04 2.960741e-01 9.995117e-01
131 1 1.000000e-06 2.000000e-06 0.000000e+00 1.232988e-04 3.413807e-01 -1.000488e+00
132 1 1.500000e-06 2.000000e-06 0.000000e+00 1.257814e-04 3.248197e-01 9.995117e-01
133 1 2.000000e-06 2.000000e-06 0.000000e+00 1.257731e-04 2.792237e-01 -1.000488e+00
134 1 2.500000e-06 2.000000e-06 0.000000e+00 1.232967e-04 3.088988e-01 9.995117e-01
135 1 3.000000e-06 2.000000e-06 0.000000e+00 1.258787e-04 3.366187e-01 -1.000488e+00
136 1 3.500000e-06 2.000000e-06 0.000000e+00 1.233001e-04 3.014031e-01 9.995117e-01
137 1 4.000000e-06 2.000000e-06 0.000000e+00 1.258544e-04 3.405047e-01 -1.000488e+00
138 1 4.500000e-06 2.000000e-06 0.000000e+00 1.257246e-04 3.212627e-01 -1.000488e+00
139 1 5.000000e-06 2.000000e-06 0.000000e+00 1.258790e-04 3.487734e-01 9.995117e-01
140 1 5.500000e-06 2.000000e-06 0.000000e+00 1.232988e-04 3.013450e-01 -1.000488e+00
141 1 6.000000e-06 2.000000e-06 0.000000e+00 1.258788e-04 3.331930e-01 9.995117e-01
142 1 6.500000e-06 2.000000e-06 0.000000e+00 1.258783e-04 3.238861e-01 -1.000488e+00
143 1 7.000000e-06 2.000000e-06 0.000000e+00 1.233016e-04 3.135752e-01 9.995117e-01
144 1 7.500000e-06 2.000000e-06 0.000000e+00 1.233016e-04 3.123809e-01 -1.000488e+00
145 1 8.000000e-06 2.000000e-06 0.000000e+00 1.257761e-04 3.055869e-01 9.995117e-01
146 1 8.500000e-06 2.000000e-06 0.000000e+00 1.258789e-04 3.366936e-01 -1.000488e+00
147 1 9.000000e-06 2.000000e-06 0.000000e+00 1.257782e-04 3.057250e-01 9.995117e-01
148 1 9.500000e-06 2.000000e-06 0.000000e+00 1.207147e-04 2.706102e-01 -1.000488e+00
149 1 1.000000e-05 2.000000e-06 0.000000e+00 1.257785e-04 3.061938e-01 9.995117e-01
150 1 1.050000e-05 2.000000e-06 0.000000e+00 1.232971e-04 3.048847e-01 -1.000488e+00
151 1 1.100000e-05 2.000000e-06 0.000000e+00 1.232981e-04 3.049376e-01 9.995117e-01
152 1 1.150000e-05 2.000000e-06 0.000000e+00 1.232231e-04 2.900263e-01 -1.000488e+00
153 1 1.200000e-05 2.000000e-06 0.000000e+00 1.233005e-04 3.050332e-01 9.995117e-01
154 1 1.250000e-05 2.000000e-06 0.000000e+00 1.258554e-04 3.171481e-01 -1.000488e+00
155 1 1.300000e-05 2.000000e-06 0.000000e+00 1.232992e-04 3.013575e-01 9.995117e-01
156 1 1.350000e-05 2.000000e-06 0.000000e+00 1.258544e-04 3.207002e-01 -1.000488e+00
157 1 1.400000e-05 2.000000e-06 0.000000e+00 1.258534e-04 3.206168e-01 9.995117e-01
158 1 1.450000e-05 2.000000e-06 0.000000e+00 1.257791e-04 3.017608e-01 -1.000488e+00
159 1 1.500000e-05 2.000000e-06 0.000000e+00 1.232967e-04 3.012506e-01 9.995117e-01
160 1 1.550000e-05 2.000000e-06 0.000000e+00 1.258560e-04 4.445649e-01 -1.000488e+00
161 1 0.000000e+00 2.500000e-06 0.000000e+00 1.232252e-04 3.744415e-01 9.995117e-01
162 1 5.000000e-07 2.500000e-06 0.000000e+00 1.233058e-04 3.538641e-01 -1.000488e+00
163 1 1.000000e-06 2.500000e-06 0.000000e+00 1.258558e-04 3.492572e-01 9.995117e-01
164 1 1.500000e-06 2.500000e-06 0.000000e+00 1.258790e-04 3.510210e-01 -1.000488e+00
165 1 2.000000e-06 2.500000e-06 0.000000e+00 1.258031e-04 3.179498e-01 9.995117e-01
166 1 2.500000e-06 2.500000e-06 0.000000e+00 1.207147e-04 2.710550e-01 -1.000488e+00
167 1 3.000000e-06 2.500000e-06 0.000000e+00 1.258503e-04 3.120334e-01 9.995117e-01
168 1 3.500000e-06 2.500000e-06 0.000000e+00 1.233000e-04 3.050106e-01 -1.000488e+00
169 1 4.000000e-06 2.500000e-06 0.000000e+00 1.232980e-04 3.197747e-01 9.995117e-01
170 1 4.500000e-06 2.500000e-06 0.000000e+00 1.257763e-04 3.286451e-01 9.995117e-01
171 1 5.000000e-06 2.500000e-06 0.000000e+00 1.258517e-04 3.522120e-01 -1.000488e+00
172 1 5.500000e-06 2.500000e-06 0.000000e+00 1.232256e-04 3.180320e-01 9.995117e-01
173 1 6.000000e-06 2.500000e-06 0.000000e+00 1.258783e-04 3.556799e-01 -1.000488e+00
174 1 6.500000e-06 2.500000e-06 0.000000e+00 1.258790e-04 3.650317e-01 9.995117e-01
175 1 7.000000e-06 2.500000e-06 0.000000e+00 1.257804e-04 3.337898e-01 -1.000488e+00
176 1 7.500000e-06 2.500000e-06 0.000000e+00 1.233030e-04 3.370640e-01 9.995117e-01
177 1 8.000000e-06 2.500000e-06 0.000000e+00 1.233013e-04 3.333735e-01 -1.000488e+00
178 1 8.500000e-06 2.500000e-06 0.000000e+00 1.232999e-04 3.438496e-01 9.995117e-01
179 1 9.000000e-06 2.500000e-06 0.000000e+00 1.232195e-04 3.039017e-01 -1.000488e+00
180 1 9.500000e-06 2.500000e-06 0.000000e+00 1.257025e-04 3.165842e-01 9.995117e-01
181 1 1.000000e-05 2.500000e-06 0.000000e+00 1.230703e-04 2.733858e-01 -1.000488e+00
182 1 1.050000e-05 2.500000e-06 0.000000e+00 1.232945e-04 3.301472e-01 9.995117e-01
183 1 1.100000e-05 2.500000e-06 0.000000e+00 1.232982e-04 3.122332e-01 -1.000488e+00
184 1 1.150000e-05 2.500000e-06 0.000000e+00 1.232989e-04 3.117858e-01 9.995117e-01
185 1 1.200000e-05 2.500000e-06 0.000000e+00 1.233008e-04 3.369690e-01 -1.000488e+00
186 1 1.250000e-05 2.500000e-06 0.000000e+00 1.233009e-04 3.369747e-01 9.995117e-01
187 1 1.300000e-05 2.500000e-06 0.000000e+00 1.232712e-04 3.142812e-01 -1.000488e+00
188 1 1.350000e-05 2.500000e-06 0.000000e+00 1.258790e-04 3.513268e-01 9.995117e-01
189 1 1.400000e-05 2.500000e-06 0.000000e+00 1.258537e-04 3.391040e-01 -1.000488e+00
190 1 1.450000e-05 2.500000e-06 0.000000e+00 1.232241e-04 3.179668e-01 9.995117e-01
191 1 1.500000e-05 2.500000e-06 0.000000e+00 1.232977e-04 3.401137e-01 -1.000488e+00
192 1 1.550000e-05 2.500000e-06 0.000000e+00 1.257778e-04 4.369068e-01 9.995117e-01
193 1 0.000000e+00 3.000000e-06 0.000000e+00 1.232976e-04 4.518841e-01 -1.000488e+00
194 1 5.000000e-07 3.000000e-06 0.000000e+00 1.232262e-04 3.051107e-01 9.995117e-01
195 1 1.000000e-06 3.000000e-06 0.000000e+00 1.232986e-04 3.216886e-01 -1.000488e+00
196 1 1.500000e-06 3.000000e-06 0.000000e+00 1.258571e-04 3.293927e-01 9.995117e-01
197 1 2.000000e-06 3.000000e-06 0.000000e+00 1.231455e-04 2.688686e-01 -1.000488e+00
198 1 2.500000e-06 3.000000e-06 0.000000e+00 1.231960e-04 2.690718e-01 9.995117e-01
199 1 3.000000e-06 3.000000e-06 0.000000e+00 1.232960e-04 3.096091e-01 -1.000488e+00
200 1 3.500000e-06 3.000000e-06 0.000000e+00 1.258540e-04 3.206547e-01 9.995117e-01
201 1 4.000000e-06 3.000000e-06 0.000000e+00 1.233000e-04 3.013916e-01 -1.000488e+00
202 1 4.500000e-06 3.000000e-06 0.000000e+00 1.232993e-04 3.198273e-01 9.995117e-01
203 1 5.000000e-06 3.000000e-06 0.000000e+00 1.258792e-04 3.687806e-01 -1.000488e+00
204 1 5.500000e-06 3.000000e-06 0.000000e+00 1.233025e-04 3.403144e-01 9.995117e-01
205 1 6.000000e-06 3.000000e-06 0.000000e+00 1.232966e-04 3.243226e-01 -1.000488e+00
206 1 6.500000e-06 3.000000e-06 0.000000e+00 1.258520e-04 3.400575e-01 9.995117e-01
207 1 7.000000e-06 3.000000e-06 0.000000e+00 1.258792e-04 3.718313e-01 -1.000488e+00
208 1 7.500000e-06 3.000000e-06 0.000000e+00 1.230781e-04 2.630334e-01 9.995117e-01
209 1 8.000000e-06 3.000000e-06 0.000000e+00 1.179091e-04 1.862789e-01 -1.000488e+00
210 1 8.500000e-06 3.000000e-06 0.000000e+00 1.228422e-04 1.863087e-01 9.995117e-01
211 1 9.000000e-06 3.000000e-06 0.000000e+00 1.228925e-04 1.850470e-01 -1.000488e+00
212 1 9.500000e-06 3.000000e-06 0.000000e+00 1.230690e-04 2.524662e-01 9.995117e-01
213 1 1.000000e-05 3.000000e-06 0.000000e+00 1.179063e-04 1.694114e-01 -1.000488e+00
214 1 1.050000e-05 3.000000e-06 0.000000e+00 1.231361e-04 2.296499e-01 9.995117e-01
215 1 1.100000e-05 3.000000e-06 0.000000e+00 1.232962e-04 3.470089e-01 -1.000488e+00
216 1 1.150000e-05 3.000000e-06 0.000000e+00 1.258759e-04 3.675918e-01 9.995117e-01
217 1 1.200000e-05 3.000000e-06 0.000000e+00 1.232840e-04 2.637842e-01 -1.000488e+00
218 1 1.250000e-05 3.000000e-06 0.000000e+00 1.232160e-04 2.868329e-01 9.995117e-01
219 1 1.300000e-05 3.000000e-06 0.000000e+00 1.232956e-04 3.327260e-01 -1.000488e+00
220 1 1.350000e-05 3.000000e-06 0.000000e+00 1.257777e-04 3.245334e-01 9.995117e-01
221 1 1.400000e-05 3.000000e-06 0.000000e+00 1.232258e-04 3.235432e-01 -1.000488e+00
222 1 1.450000e-05 3.000000e-06 0.000000e+00 1.232983e-04 3.490357e-01 9.995117e-01
223 1 1.500000e-05 3.000000e-06 0.000000e+00 1.258552e-04 3.526658e-01 -1.000488e+00
224 1 1.550000e-05 3.000000e-06 0.000000e+00 1.258792e-04 4.939501e-01 9.995117e-01
225 1 0.000000e+00 3.500000e-06 0.000000e+00 1.232994e-04 4.261179e-01 9.995117e-01
226 1 5.000000e-07 3.500000e-06 0.000000e+00 1.232982e-04 3.013179e-01 -1.000488e+00
227 1 1.000000e-06 3.500000e-06 0.000000e+00 1.232965e-04 3.012412e-01 9.995117e-01
228 1 1.500000e-06 3.500000e-06 0.000000e+00 1.232975e-04 3.049108e-01 -1.000488e+00
229 1 2.000000e-06 3.500000e-06 0.000000e+00 1.232219e-04 2.859433e-01 9.995117e-01
230 1 2.500000e-06 3.500000e-06 0.000000e+00 1.257044e-04 2.811905e-01 -1.000488e+00
231 1 3.000000e-06 3.500000e-06 0.000000e+00 1.256521e-04 2.890715e-01 9.995117e-01
232 1 3.500000e-06 3.500000e-06 0.000000e+00 1.256520e-04 2.904184e-01 -1.000488e+00
233 1 4.000000e-06 3.500000e-06 0.000000e+00 1.230735e-04 2.499301e-01 9.995117e-01
234 1 4.500000e-06 3.500000e-06 0.000000e+00 1.227712e-04 1.508312e-01 -1.000488e+00
235 1 5.000000e-06 3.500000e-06 0.000000e+00 1.230767e-04 2.500586e-01 9.995117e-01
236 1 5.500000e-06 3.500000e-06 0.000000e+00 1.258792e-04 3.556597e-01 -1.000488e+00
237 1 6.000000e-06 3.500000e-06 0.000000e+00 1.232990e-04 3.049714e-01 9.995117e-01
238 1 6.500000e-06 3.500000e-06 0.000000e+00 1.233038e-04 3.051638e-01 -1.000488e+00
239 1 7.000000e-06 3.500000e-06 0.000000e+00 1.232984e-04 3.049495e-01 9.995117e-01
240 1 7.500000e-06 3.500000e-06 0.000000e+00 1.207126e-04 2.603699e-01 -1.000488e+00
241 1 8.000000e-06 3.500000e-06 0.000000e+00 1.257803e-04 3.091644e-01 9.995117e-01
242 1 8.500000e-06 3.500000e-06 0.000000e+00 1.231928e-04 2.531752e-01 -1.000488e+00
243 1 9.000000e-06 3.500000e-06 0.000000e+00 1.258789e-04 3.328041e-01 9.995117e-01
244 1 9.500000e-06 3.500000e-06 0.000000e+00 1.231963e-04 2.676712e-01 -1.000488e+00
245 1 1.000000e-05 3.500000e-06 0.000000e+00 1.206420e-04 2.519850e-01 9.995117e-01
246 1 1.050000e-05 3.500000e-06 0.000000e+00 1.155551e-04 1.988928e-01 -1.000488e+00
247 1 1.100000e-05 3.500000e-06 0.000000e+00 1.231490e-04 2.924707e-01 9.995117e-01
248 1 1.150000e-05 3.500000e-06 0.000000e+00 1.258792e-04 3.619718e-01 -1.000488e+00
249 1 1.200000e-05 3.500000e-06 0.000000e+00 1.232972e-04 3.012739e-01 9.995117e-01
250 1 1.250000e-05 3.500000e-06 0.000000e+00 1.258555e-04 3.171536e-01 -1.000488e+00
251 1 1.300000e-05 3.500000e-06 0.000000e+00 1.232981e-04 3.158647e-01 9.995117e-01
252 1 1.350000e-05 3.500000e-06 0.000000e+00 1.232223e-04 2.949723e-01 -1.000488e+00
253 1 1.400000e-05 3.500000e-06 0.000000e+00 1.231468e-04 2.621435e-01 9.995117e-01
254 1 1.450000e-05 3.500000e-06 0.000000e+00 1.207163e-04 2.672696e-01 -1.000488e+00
255 1 1.500000e-05 3.500000e-06 0.000000e+00 1.207134e-04 2.582952e-01 9.995117e-01
256 1 1.550000e-05 3.500000e-06 0.000000e+00 1.258556e-04 4.227043e-01 -1.000488e+00
257 1 0.000000e+00 4.000000e-06 0.000000e+00 1.232982e-04 4.316219e-01 -1.000488e+00
258 1 5.000000e-07 4.000000e-06 0.000000e+00 1.233014e-04 3.050750e-01 9.995117e-01
259 1 1.000000e-06 4.000000e-06 0.000000e+00 1.232996e-04 3.049965e-01 -1.000488e+00
260 1 1.500000e-06 4.000000e-06 0.000000e+00 1.233006e-04 3.123376e-01 9.995117e-01
261 1 2.000000e-06 4.000000e-06 0.000000e+00 1.232932e-04 3.026130e-01 -1.000488e+00
262 1 2.500000e-06 4.000000e-06 0.000000e+00 1.232284e-04 3.090974e-01 9.995117e-01
263 1 3.000000e-06 4.000000e-06 0.000000e+00 1.258534e-04 3.496453e-01 -1.000488e+00
264 1 3.500000e-06 4.000000e-06 0.000000e+00 1.232940e-04 3.359130e-01 9.995117e-01
265 1 4.000000e-06 4.000000e-06 0.000000e+00 1.232989e-04 3.401673e-01 9.995117e-01
266 1 4.500000e-06 4.000000e-06 0.000000e+00 1.258792e-04 3.687494e-01 -1.000488e+00
267 1 5.000000e-06 4.000000e-06 0.000000e+00 1.233008e-04 3.486768e-01 9.995117e-01
268 1 5.500000e-06 4.000000e-06 0.000000e+00 1.232974e-04 3.470534e-01 9.995117e-01
269 1 6.000000e-06 4.000000e-06 0.000000e+00 1.258791e-04 3.628073e-01 -1.000488e+00
270 1 6.500000e-06 4.000000e-06 0.000000e+00 1.232990e-04 3.013536e-01 9.995117e-01
271 1 7.000000e-06 4.000000e-06 0.000000e+00 1.258789e-04 3.406617e-01 -1.000488e+00
272 1 7.500000e-06 4.000000e-06 0.000000e+00 1.258789e-04 3.489367e-01 9.995117e-01
273 1 8.000000e-06 4.000000e-06 0.000000e+00 1.258788e-04 3.371317e-01 -1.000488e+00
274 1 8.500000e-06 4.000000e-06 0.000000e+00 1.257801e-04 3.082228e-01 9.995117e-01
275 1 9.000000e-06 4.000000e-06 0.000000e+00 1.258538e-04 3.206536e-01 -1.000488e+00
276 1 9.500000e-06 4.000000e-06 0.000000e+00 1.233015e-04 3.014592e-01 9.995117e-01
277 1 1.000000e-05 4.000000e-06 0.000000e+00 1.233001e-04 3.013993e-01 -1.000488e+00
278 1 1.050000e-05 4.000000e-06 0.000000e+00 1.232992e-04 2.965247e-01 9.995117e-01
279 1 1.100000e-05 4.000000e-06 0.000000e+00 1.232221e-04 2.899837e-01 -1.000488e+00
280 1 1.150000e-05 4.000000e-06 0.000000e+00 1.232974e-04 3.081738e-01 9.995117e-01
281 1 1.200000e-05 4.000000e-06 0.000000e+00 1.258788e-04 3.369737e-01 -1.000488e+00
282 1 1.250000e-05 4.000000e-06 0.000000e+00 1.258789e-04 3.330791e-01 9.995117e-01
283 1 1.300000e-05 4.000000e-06 0.000000e+00 1.258555e-04 3.247969e-01 -1.000488e+00
284 1 1.350000e-05 4.000000e-06 0.000000e+00 1.233003e-04 3.058777e-01 9.995117e-01
285 1 1.400000e-05 4.000000e-06 0.000000e+00 1.232984e-04 3.184078e-01 -1.000488e+00
286 1 1.450000e-05 4.000000e-06 0.000000e+00 1.233005e-04 3.135234e-01 9.995117e-01
287 1 1.500000e-05 4.000000e-06 0.000000e+00 1.232981e-04 3.095536e-01 -1.000488e+00
288 1 1.550000e-05 4.000000e-06 0.000000e+00 1.258550e-04 4.376293e-01 9.995117e-01
289 1 0.000000e+00 4.500000e-06 0.000000e+00 1.232969e-04 4.118934e-01 9.995117e-01
290 1 5.000000e-07 4.500000e-06 0.000000e+00 1.232983e-04 3.053498e-01 -1.000488e+00
291 1 1.000000e-06 4.500000e-06 0.000000e+00 1.232965e-04 3.052665e-01 9.995117e-01
292 1 1.500000e-06 4.500000e-06 0.000000e+00 1.232981e-04 3.053354e-01 -1.000488e+00
293 1 2.000000e-06 4.500000e-06 0.000000e+00 1.258032e-04 3.141882e-01 9.995117e-01
294 1 2.500000e-06 4.500000e-06 0.000000e+00 1.232218e-04 2.942680e-01 -1.000488e+00
295 1 3.000000e-06 4.500000e-06 0.000000e+00 1.258790e-04 3.698250e-01 9.995117e-01
296 1 3.500000e-06 4.500000e-06 0.000000e+00 1.232997e-04 3.179468e-01 9.995117e-01
297 1 4.000000e-06 4.500000e-06 0.000000e+00 1.258541e-04 3.170565e-01 -1.000488e+00
298 1 4.500000e-06 4.500000e-06 0.000000e+00 1.233007e-04 3.014209e-01 9.995117e-01
299 1 5.000000e-06 4.500000e-06 0.000000e+00 1.258790e-04 3.399263e-01 -1.000488e+00
300 1 5.500000e-06 4.500000e-06 0.000000e+00 1.232965e-04 3.079214e-01 -1.000488e+00
301 1 6.000000e-06 4.500000e-06 0.000000e+00 1.232193e-04 2.963713e-01 9.995117e-01
302 1 6.500000e-06 4.500000e-06 0.000000e+00 1.232995e-04 3.090133e-01 -1.000488e+00
303 1 7.000000e-06 4.500000e-06 0.000000e+00 1.232969e-04 3.048827e-01 9.995117e-01
304 1 7.500000e-06 4.500000e-06 0.000000e+00 1.232985e-04 3.158906e-01 -1.000488e+00
305 1 8.000000e-06 4.500000e-06 0.000000e+00 1.258550e-04 3.324960e-01 9.995117e-01
306 1 8.500000e-06 4.500000e-06 0.000000e+00 1.258571e-04 3.282024e-01 -1.000488e+00
307 1 9.000000e-06 4.500000e-06 0.000000e+00 1.232963e-04 3.012348e-01 9.995117e-01
308 1 9.500000e-06 4.500000e-06 0.000000e+00 1.258553e-04 3.171445e-01 -1.000488e+00
309 1 1.000000e-05 4.500000e-06 0.000000e+00 1.232242e-04 2.900705e-01 9.995117e-01
310 1 1.050000e-05 4.500000e-06 0.000000e+00 1.232990e-04 3.159099e-01 -1.000488e+00
311 1 1.100000e-05 4.500000e-06 0.000000e+00 1.232726e-04 2.869405e-01 9.995117e-01
312 1 1.150000e-05 4.500000e-06 0.000000e+00 1.232949e-04 2.963467e-01 -1.000488e+00
313 1 1.200000e-05 4.500000e-06 0.000000e+00 1.233009e-04 3.050530e-01 9.995117e-01
314 1 1.250000e-05 4.500000e-06 0.000000e+00 1.258563e-04 3.281322e-01 -1.000488e+00
315 1 1.300000e-05 4.500000e-06 0.000000e+00 1.258506e-04 3.184017e-01 9.995117e-01
316 1 1.350000e-05 4.500000e-06 0.000000e+00 1.232258e-04 2.965634e-01 -1.000488e+00
317 1 1.400000e-05 4.500000e-06 0.000000e+00 1.207179e-04 2.667761e-01 9.995117e-01
318 1 1.450000e-05 4.500000e-06 0.000000e+00 1.232222e-04 2.923732e-01 -1.000488e+00
319 1 1.500000e-05 4.500000e-06 0.000000e+00 1.258546e-04 3.305341e-01 9.995117e-01
320 1 1.550000e-05 4.500000e-06 0.000000e+00 1.258792e-04 4.566747e-01 -1.000488e+00
321 1 0.000000e+00 5.000000e-06 0.000000e+00 1.232990e-04 4.316577e-01 -1.000488e+00
322 1 5.000000e-07 5.000000e-06 0.000000e+00 1.232976e-04 3.049114e-01 9.995117e-01
323 1 1.000000e-06 5.000000e-06 0.000000e+00 1.232992e-04 3.049803e-01 -1.000488e+00
324 1 1.500000e-06 5.000000e-06 0.000000e+00 1.233001e-04 2.965662e-01 9.995117e-01
325 1 2.000000e-06 5.000000e-06 0.000000e+00 1.232952e-04 2.982320e-01 -1.000488e+00
326 1 2.500000e-06 5.000000e-06 0.000000e+00 1.232963e-04 3.015546e-01 9.995117e-01
327 1 3.000000e-06 5.000000e-06 0.000000e+00 1.232992e-04 3.287696e-01 -1.000488e+00
328 1 3.500000e-06 5.000000e-06 0.000000e+00 1.258546e-04 3.405160e-01 -1.000488e+00
329 1 4.000000e-06 5.000000e-06 0.000000e+00 1.258790e-04 3.327162e-01 9.995117e-01
330 1 4.500000e-06 5.000000e-06 0.000000e+00 1.258548e-04 3.171040e-01 -1.000488e+00
331 1 5.000000e-06 5.000000e-06 0.000000e+00 1.233006e-04 3.082305e-01 9.995117e-01
332 1 5.500000e-06 5.000000e-06 0.000000e+00 1.257790e-04 3.168941e-01 9.995117e-01
333 1 6.000000e-06 5.000000e-06 0.000000e+00 1.232234e-04 3.111205e-01 -1.000488e+00
334 1 6.500000e-06 5.000000e-06 0.000000e+00 1.232988e-04 3.049674e-01 9.995117e-01
335 1 7.000000e-06 5.000000e-06 0.000000e+00 1.233011e-04 3.014406e-01 -1.000488e+00
336 1 7.500000e-06 5.000000e-06 0.000000e+00 1.233022e-04 3.051077e-01 9.995117e-01
337 1 8.000000e-06 5.000000e-06 0.000000e+00 1.258564e-04 3.248670e-01 -1.000488e+00
338 1 8.500000e-06 5.000000e-06 0.000000e+00 1.258788e-04 3.332380e-01 9.995117e-01
339 1 9.000000e-06 5.000000e-06 0.000000e+00 1.232998e-04 3.013889e-01 -1.000488e+00
340 1 9.500000e-06 5.000000e-06 0.000000e+00 1.258787e-04 3.329868e-01 9.995117e-01
341 1 1.000000e-05 5.000000e-06 0.000000e+00 1.258529e-04 3.246097e-01 -1.000488e+00
342 1 1.050000e-05 5.000000e-06 0.000000e+00 1.258561e-04 3.284932e-01 9.995117e-01
343 1 1.100000e-05 5.000000e-06 0.000000e+00 1.258789e-04 3.370188e-01 -1.000488e+00
344 1 1.150000e-05 5.000000e-06 0.000000e+00 1.257792e-04 3.057972e-01 9.995117e-01
345 1 1.200000e-05 5.000000e-06 0.000000e+00 1.232993e-04 3.013654e-01 -1.000488e+00
346 1 1.250000e-05 5.000000e-06 0.000000e+00 1.258546e-04 3.247327e-01 9.995117e-01
347 1 1.300000e-05 5.000000e-06 0.000000e+00 1.258790e-04 3.450874e-01 -1.000488e+00
348 1 1.350000e-05 5.000000e-06 0.000000e+00 1.206890e-04 2.528680e-01 9.995117e-01
349 1 1.400000e-05 5.000000e-06 0.000000e+00 1.206393e-04 2.354979e-01 -1.000488e+00
350 1 1.450000e-05 5.000000e-06 0.000000e+00 1.207144e-04 2.716125e-01 9.995117e-01
351 1 1.500000e-05 5.000000e-06 0.000000e+00 1.232230e-04 2.829240e-01 -1.000488e+00
352 1 1.550000e-05 5.000000e-06 0.000000e+00 1.257790e-04 4.033432e-01 9.995117e-01
353 1 0.000000e+00 5.500000e-06 0.000000e+00 1.233021e-04 3.994404e-01 9.995117e-01
354 1 5.000000e-07 5.500000e-06 0.000000e+00 1.207168e-04 2.707027e-01 -1.000488e+00