ITEM: TIMESTEP
8
ITEM: NUMBER OF ATOMS
16384
ITEM: BOX BOUNDS pp pp pp
0.0 1.600000e-05
0.0 1.600000e-05
0.0 8.000000e-06
ITEM: ATOMS id type x y z crack plastic psi
1 1 0.000000e+00 0.000000e+00 0.000000e+00 9.999988e-01 1.000000e+00 -1.500000e+00
2 1 5.000000e-07 0.000000e+00 0.000000e+00 9.999825e-01 8.164966e-01 1.500000e+00
3 1 1.000000e-06 0.000000e+00 0.000000e+00 9.999795e-01 8.164966e-01 -1.500000e+00
4 1 1.500000e-06 0.000000e+00 0.000000e+00 9.999251e-01 8.164966e-01 1.500000e+00
5 1 2.000000e-06 0.000000e+00 0.000000e+00 9.999121e-01 8.164966e-01 -1.500000e+00
6 1 2.500000e-06 0.000000e+00 0.000000e+00 9.998508e-01 8.164966e-01 1.500000e+00
7 1 3.000000e-06 0.000000e+00 0.000000e+00 9.998531e-01 8.164966e-01 -1.500000e+00
8 1 3.500000e-06 0.000000e+00 0.000000e+00 9.998132e-01 8.164966e-01 1.500000e+00
9 1 4.000000e-06 0.000000e+00 0.000000e+00 9.998240e-01 8.164966e-01 -1.500000e+00
10 1 4.500000e-06 0.000000e+00 0.000000e+00 9.998004e-01 8.164966e-01 1.500000e+00
11 1 5.000000e-06 0.000000e+00 0.000000e+00 9.998109e-01 8.164966e-01 -1.500000e+00
12 1 5.500000e-06 0.000000e+00 0.000000e+00 9.997968e-01 8.164966e-01 1.500000e+00
13 1 6.000000e-06 0.000000e+00 0.000000e+00 9.998055e-01 8.164966e-01 -1.500000e+00
14 1 6.500000e-06 0.000000e+00 0.000000e+00 9.997971e-01 8.164966e-01 1.500000e+00
15 1 7.000000e-06 0.000000e+00 0.000000e+00 9.998047e-01 8.164966e-01 -1.500000e+00
16 1 7.500000e-06 0.000000e+00 0.000000e+00 9.998007e-01 8.164966e-01 1.500000e+00
17 1 8.000000e-06 0.000000e+00 0.000000e+00 9.998079e-01 8.164966e-01 -1.500000e+00
18 1 8.500000e-06 0.000000e+00 0.000000e+00 9.998076e-01 8.164966e-01 1.500000e+00
19 1 9.000000e-06 0.000000e+00 0.000000e+00 9.998150e-01 8.164966e-01 -1.500000e+00
20 1 9.500000e-06 0.000000e+00 0.000000e+00 9.998190e-01 8.164966e-01 1.500000e+00
21 1 1.000000e-05 0.000000e+00 0.000000e+00 9.998273e-01 8.164966e-01 -1.500000e+00
22 1 1.050000e-05 0.000000e+00 0.000000e+00 9.998375e-01 8.164966e-01 1.500000e+00
23 1 1.100000e-05 0.000000e+00 0.000000e+00 9.998478e-01 8.164966e-01 -1.500000e+00
24 1 1.150000e-05 0.000000e+00 0.000000e+00 9.998662e-01 8.164966e-01 1.500000e+00
25 1 1.200000e-05 0.000000e+00 0.000000e+00 9.998785e-01 8.164966e-01 -1.500000e+00
26 1 1.250000e-05 0.000000e+00 0.000000e+00 9.999062e-01 8.164966e-01 1.500000e+00
27 1 1.300000e-05 0.000000e+00 0.000000e+00 9.999162e-01 8.164966e-01 -1.500000e+00
28 1 1.350000e-05 0.000000e+00 0.000000e+00 9.999512e-01 8.164966e-01 1.500000e+00
29 1 1.400000e-05 0.000000e+00 0.000000e+00 9.999526e-01 8.164966e-01 -1.500000e+00
30 1 1.450000e-05 0.000000e+00 0.000000e+00 9.999863e-01 8.164966e-01 1.500000e+00
31 1 1.500000e-05 0.000000e+00 0.000000e+00 9.999838e-01 8.164966e-01 -1.500000e+00
32 1 1.550000e-05 0.000000e+00 0.000000e+00 9.999988e-01 1.000000e+00 1.500000e+00
33 1 0.000000e+00 5.000000e-07 0.000000e+00 9.999995e-01 8.164966e-01 1.500000e+00
34 1 5.000000e-07 5.000000e-07 0.000000e+00 9.999657e-01 5.773503e-01 -1.500000e+00
35 1 1.000000e-06 5.000000e-07 0.000000e+00 9.999204e-01 5.773503e-01 1.500000e+00
36 1 1.500000e-06 5.000000e-07 0.000000e+00 9.997780e-01 5.773503e-01 -1.500000e+00
37 1 2.000000e-06 5.000000e-07 0.000000e+00 9.997290e-01 5.773503e-01 1.500000e+00
38 1 2.500000e-06 5.000000e-07 0.000000e+00 9.996290e-01 5.773503e-01 -1.500000e+00
39 1 3.000000e-06 5.000000e-07 0.000000e+00 9.996240e-01 5.773503e-01 1.500000e+00
40 1 3.500000e-06 5.000000e-07 0.000000e+00 9.995786e-01 5.773503e-01 -1.500000e+00
41 1 4.000000e-06 5.000000e-07 0.000000e+00 9.995861e-01 5.773503e-01 1.500000e+00
42 1 4.500000e-06 5.000000e-07 0.000000e+00 9.995799e-01 5.773503e-01 -1.500000e+00
43 1 5.000000e-06 5.000000e-07 0.000000e+00 9.995843e-01 5.773503e-01 1.500000e+00
44 1 5.500000e-06 5.000000e-07 0.000000e+00 9.995809e-01 5.773503e-01 -1.500000e+00
45 1 6.000000e-06 5.000000e-07 0.000000e+00 9.995835e-01 5.773503e-01 1.500000e+00
46 1 6.500000e-06 5.000000e-07 0.000000e+00 9.995819e-01 5.773503e-01 -1.500000e+00
47 1 7.000000e-06 5.000000e-07 0.000000e+00 9.995835e-01 5.773503e-01 1.500000e+00
48 1 7.500000e-06 5.000000e-07 0.000000e+00 9.995834e-01 5.773503e-01 -1.500000e+00
49 1 8.000000e-06 5.000000e-07 0.000000e+00 9.995849e-01 5.773503e-01 1.500000e+00
50 1 8.500000e-06 5.000000e-07 0.000000e+00 9.995857e-01 5.773503e-01 -1.500000e+00
51 1 9.000000e-06 5.000000e-07 0.000000e+00 9.995875e-01 5.773503e-01 1.500000e+00
52 1 9.500000e-06 5.000000e-07 0.000000e+00 9.995962e-01 5.773503e-01 -1.500000e+00
53 1 1.000000e-05 5.000000e-07 0.000000e+00 9.996000e-01 5.773503e-01 1.500000e+00
54 1 1.050000e-05 5.000000e-07 0.000000e+00 9.996332e-01 5.773503e-01 -1.500000e+00
55 1 1.100000e-05 5.000000e-07 0.000000e+00 9.996451e-01 5.773503e-01 1.500000e+00
56 1 1.150000e-05 5.000000e-07 0.000000e+00 9.996917e-01 5.773503e-01 -1.500000e+00
57 1 1.200000e-05 5.000000e-07 0.000000e+00 9.997153e-01 5.773503e-01 1.500000e+00
58 1 1.250000e-05 5.000000e-07 0.000000e+00 9.997768e-01 5.773503e-01 -1.500000e+00
59 1 1.300000e-05 5.000000e-07 0.000000e+00 9.998096e-01 5.773503e-01 1.500000e+00
60 1 1.350000e-05 5.000000e-07 0.000000e+00 9.998822e-01 5.773503e-01 -1.500000e+00
61 1 1.400000e-05 5.000000e-07 0.000000e+00 9.999086e-01 5.773503e-01 1.500000e+00
62 1 1.450000e-05 5.000000e-07 0.000000e+00 9.999732e-01 5.773503e-01 -1.500000e+00
63 1 1.500000e-05 5.000000e-07 0.000000e+00 9.999795e-01 5.773503e-01 1.500000e+00
64 1 1.550000e-05 5.000000e-07 0.000000e+00 9.999997e-01 8.164966e-01 -1.500000e+00
65 1 0.000000e+00 1.000000e-06 0.000000e+00 9.999983e-01 8.164966e-01 -1.500000e+00
66 1 5.000000e-07 1.000000e-06 0.000000e+00 9.999537e-01 5.773503e-01 1.500000e+00
67 1 1.000000e-06 1.000000e-06 0.000000e+00 9.999183e-01 5.773503e-01 -1.500000e+00
68 1 1.500000e-06 1.000000e-06 0.000000e+00 9.997356e-01 5.773503e-01 1.500000e+00
69 1 2.000000e-06 1.000000e-06 0.000000e+00 9.997105e-01 5.773503e-01 -1.500000e+00
70 1 2.500000e-06 1.000000e-06 0.000000e+00 9.995464e-01 5.773503e-01 1.500000e+00
71 1 3.000000e-06 1.000000e-06 0.000000e+00 9.995468e-01 5.773503e-01 -1.500000e+00
72 1 3.500000e-06 1.000000e-06 0.000000e+00 9.995290e-01 5.773503e-01 1.500000e+00
73 1 4.000000e-06 1.000000e-06 0.000000e+00 9.995320e-01 5.773503e-01 -1.500000e+00
74 1 4.500000e-06 1.000000e-06 0.000000e+00 9.995231e-01 5.773503e-01 1.500000e+00
75 1 5.000000e-06 1.000000e-06 0.000000e+00 9.995262e-01 5.773503e-01 -1.500000e+00
76 1 5.500000e-06 1.000000e-06 0.000000e+00 9.995214e-01 5.773503e-01 1.500000e+00
77 1 6.000000e-06 1.000000e-06 0.000000e+00 9.995243e-01 5.773503e-01 -1.500000e+00
78 1 6.500000e-06 1.000000e-06 0.000000e+00 9.995218e-01 5.773503e-01 1.500000e+00
79 1 7.000000e-06 1.000000e-06 0.000000e+00 9.995243e-01 5.773503e-01 -1.500000e+00
80 1 7.500000e-06 1.000000e-06 0.000000e+00 9.995236e-01 5.773503e-01 1.500000e+00
81 1 8.000000e-06 1.000000e-06 0.000000e+00 9.995260e-01 5.773503e-01 -1.500000e+00
82 1 8.500000e-06 1.000000e-06 0.000000e+00 9.995268e-01 5.773503e-01 1.500000e+00
83 1 9.000000e-06 1.000000e-06 0.000000e+00 9.995292e-01 5.773503e-01 -1.500000e+00
84 1 9.500000e-06 1.000000e-06 0.000000e+00 9.995317e-01 5.773503e-01 1.500000e+00
85 1 1.000000e-05 1.000000e-06 0.000000e+00 9.995345e-01 5.773503e-01 -1.500000e+00
86 1 1.050000e-05 1.000000e-06 0.000000e+00 9.995394e-01 5.773503e-01 1.500000e+00
87 1 1.100000e-05 1.000000e-06 0.000000e+00 9.995424e-01 5.773503e-01 -1.500000e+00
88 1 1.150000e-05 1.000000e-06 0.000000e+00 9.995515e-01 5.773503e-01 1.500000e+00
89 1 1.200000e-05 1.000000e-06 0.000000e+00 9.995610e-01 5.773503e-01 -1.500000e+00
90 1 1.250000e-05 1.000000e-06 0.000000e+00 9.996496e-01 5.773503e-01 1.500000e+00
91 1 1.300000e-05 1.000000e-06 0.000000e+00 9.996751e-01 5.773503e-01 -1.500000e+00
92 1 1.350000e-05 1.000000e-06 0.000000e+00 9.998043e-01 5.773503e-01 1.500000e+00
93 1 1.400000e-05 1.000000e-06 0.000000e+00 9.998356e-01 5.773503e-01 -1.500000e+00
94 1 1.450000e-05 1.000000e-06 0.000000e+00 9.999545e-01 5.773503e-01 1.500000e+00
95 1 1.500000e-05 1.000000e-06 0.000000e+00 9.999656e-01 5.773503e-01 -1.500000e+00
96 1 1.550000e-05 1.000000e-06 0.000000e+00 9.999990e-01 8.164966e-01 1.500000e+00
97 1 0.000000e+00 1.500000e-06 0.000000e+00 9.999996e-01 8.164966e-01 1.500000e+00
98 1 5.000000e-07 1.500000e-06 0.000000e+00 9.999654e-01 5.773503e-01 -1.500000e+00
99 1 1.000000e-06 1.500000e-06 0.000000e+00 9.999236e-01 5.773503e-01 1.500000e+00
100 1 1.500000e-06 1.500000e-06 0.000000e+00 9.997357e-01 5.773503e-01 -1.500000e+00
101 1 2.000000e-06 1.500000e-06 0.000000e+00 9.996600e-01 5.773503e-01 1.500000e+00
102 1 2.500000e-06 1.500000e-06 0.000000e+00 9.995465e-01 5.773503e-01 -1.500000e+00
103 1 3.000000e-06 1.500000e-06 0.000000e+00 9.995471e-01 5.773503e-01 1.500000e+00
104 1 3.500000e-06 1.500000e-06 0.000000e+00 9.995342e-01 5.773503e-01 -1.500000e+00
105 1 4.000000e-06 1.500000e-06 0.000000e+00 9.995366e-01 5.773503e-01 1.500000e+00
106 1 4.500000e-06 1.500000e-06 0.000000e+00 9.995313e-01 5.773503e-01 -1.500000e+00
107 1 5.000000e-06 1.500000e-06 0.000000e+00 9.995341e-01 5.773503e-01 1.500000e+00
108 1 5.500000e-06 1.500000e-06 0.000000e+00 9.995317e-01 5.773503e-01 -1.500000e+00
109 1 6.000000e-06 1.500000e-06 0.000000e+00 9.995343e-01 5.773503e-01 1.500000e+00
110 1 6.500000e-06 1.500000e-06 0.000000e+00 9.995332e-01 5.773503e-01 -1.500000e+00
111 1 7.000000e-06 1.500000e-06 0.000000e+00 9.995355e-01 5.773503e-01 1.500000e+00
112 1 7.500000e-06 1.500000e-06 0.000000e+00 9.995354e-01 5.773503e-01 -1.500000e+00
113 1 8.000000e-06 1.500000e-06 0.000000e+00 9.995377e-01 5.773503e-01 1.500000e+00
114 1 8.500000e-06 1.500000e-06 0.000000e+00 9.995384e-01 5.773503e-01 -1.500000e+00
115 1 9.000000e-06 1.500000e-06 0.000000e+00 9.995409e-01 5.773503e-01 1.500000e+00
116 1 9.500000e-06 1.500000e-06 0.000000e+00 9.995426e-01 5.773503e-01 -1.500000e+00
117 1 1.000000e-05 1.500000e-06 0.000000e+00 9.995458e-01 5.773503e-01 1.500000e+00
118 1 1.050000e-05 1.500000e-06 0.000000e+00 9.995488e-01 5.773503e-01 -1.500000e+00
119 1 1.100000e-05 1.500000e-06 0.000000e+00 9.995526e-01 5.773503e-01 1.500000e+00
120 1 1.150000e-05 1.500000e-06 0.000000e+00 9.995583e-01 5.773503e-01 -1.500000e+00
121 1 1.200000e-05 1.500000e-06 0.000000e+00 9.995813e-01 5.773503e-01 1.500000e+00
122 1 1.250000e-05 1.500000e-06 0.000000e+00 9.996454e-01 5.773503e-01 -1.500000e+00
123 1 1.300000e-05 1.500000e-06 0.000000e+00 9.996832e-01 5.773503e-01 1.500000e+00
124 1 1.350000e-05 1.500000e-06 0.000000e+00 9.997935e-01 5.773503e-01 -1.500000e+00
125 1 1.400000e-05 1.500000e-06 0.000000e+00 9.998414e-01 5.773503e-01 1.500000e+00
126 1 1.450000e-05 1.500000e-06 0.000000e+00 9.999609e-01 5.773503e-01 -1.500000e+00
127 1 1.500000e-05 1.500000e-06 0.000000e+00 9.999788e-01 5.773503e-01 1.500000e+00
128 1 1.550000e-05 1.500000e-06 0.000000e+00 9.999998e-01 8.164966e-01 -1.500000e+00
129 1 0.000000e+00 2.000000e-06 0.000000e+00 9.999994e-01 8.164966e-01 -1.500000e+00
130 1 5.000000e-07 2.000000e-06 0.000000e+00 9.999614e-01 5.773503e-01 1.500000e+00
131 1 1.000000e-06 2.000000e-06 0.000000e+00 9.999131e-01 5.773503e-01 -1.500000e+00
132 1 1.500000e-06 2.000000e-06 0.000000e+00 9.997086e-01 5.773503e-01 1.500000e+00
133 1 2.000000e-06 2.000000e-06 0.000000e+00 9.996658e-01 5.773503e-01 -1.500000e+00
134 1 2.500000e-06 2.000000e-06 0.000000e+00 9.995356e-01 5.773503e-01 1.500000e+00
135 1 3.000000e-06 2.000000e-06 0.000000e+00 9.995419e-01 5.773503e-01 -1.500000e+00
136 1 3.500000e-06 2.000000e-06 0.000000e+00 9.995259e-01 5.773503e-01 1.500000e+00
137 1 4.000000e-06 2.000000e-06 0.000000e+00 9.995297e-01 5.773503e-01 -1.500000e+00
138 1 4.500000e-06 2.000000e-06 0.000000e+00 9.995223e-01 5.773503e-01 1.500000e+00
139 1 5.000000e-06 2.000000e-06 0.000000e+00 9.995244e-01 5.773503e-01 -1.500000e+00
140 1 5.500000e-06 2.000000e-06 0.000000e+00 9.995207e-01 5.773503e-01 1.500000e+00
141 1 6.000000e-06 2.000000e-06 0.000000e+00 9.995223e-01 5.773503e-01 -1.500000e+00
142 1 6.500000e-06 2.000000e-06 0.000000e+00 9.995205e-01 5.773503e-01 1.500000e+00
143 1 7.000000e-06 2.000000e-06 0.000000e+00 9.995220e-01 5.773503e-01 -1.500000e+00
144 1 7.500000e-06 2.000000e-06 0.000000e+00 9.995215e-01 5.773503e-01 1.500000e+00
145 1 8.000000e-06 2.000000e-06 0.000000e+00 9.995229e-01 5.773503e-01 -1.500000e+00
146 1 8.500000e-06 2.000000e-06 0.000000e+00 9.995235e-01 5.773503e-01 1.500000e+00
147 1 9.000000e-06 2.000000e-06 0.000000e+00 9.995248e-01 5.773503e-01 -1.500000e+00
148 1 9.500000e-06 2.000000e-06 0.000000e+00 9.995268e-01 5.773503e-01 1.500000e+00
149 1 1.000000e-05 2.000000e-06 0.000000e+00 9.995281e-01 5.773503e-01 -1.500000e+00
150 1 1.050000e-05 2.000000e-06 0.000000e+00 9.995320e-01 5.773503e-01 1.500000e+00
151 1 1.100000e-05 2.000000e-06 0.000000e+00 9.995335e-01 5.773503e-01 -1.500000e+00
152 1 1.150000e-05 2.000000e-06 0.000000e+00 9.995411e-01 5.773503e-01 1.500000e+00
153 1 1.200000e-05 2.000000e-06 0.000000e+00 9.995445e-01 5.773503e-01 -1.500000e+00
154 1 1.250000e-05 2.000000e-06 0.000000e+00 9.995965e-01 5.773503e-01 1.500000e+00
155 1 1.300000e-05 2.000000e-06 0.000000e+00 9.996385e-01 5.773503e-01 -1.500000e+00
156 1 1.350000e-05 2.000000e-06 0.000000e+00 9.997705e-01 5.773503e-01 1.500000e+00
157 1 1.400000e-05 2.000000e-06 0.000000e+00 9.998258e-01 5.773503e-01 -1.500000e+00
158 1 1.450000e-05 2.000000e-06 0.000000e+00 9.999553e-01 5.773503e-01 1.500000e+00
159 1 1.500000e-05 2.000000e-06 0.000000e+00 9.999754e-01 5.773503e-01 -1.500000e+00
160 1 1.550000e-05 2.000000e-06 0.000000e+00 9.999997e-01 8.164966e-01 1.500000e+00
161 1 0.000000e+00 2.500000e-06 0.000000e+00 9.999997e-01 8.164966e-01 1.500000e+00
162 1 5.000000e-07 2.500000e-06 0.000000e+00 9.999679e-01 5.773503e-01 -1.500000e+00
163 1 1.000000e-06 2.500000e-06 0.000000e+00 9.999279e-01 5.773503e-01 1.500000e+00
164 1 1.500000e-06 2.500000e-06 0.000000e+00 9.997239e-01 5.773503e-01 -1.500000e+00
165 1 2.000000e-06 2.500000e-06 0.000000e+00 9.996620e-01 5.773503e-01 1.500000e+00
166 1 2.500000e-06 2.500000e-06 0.000000e+00 9.995402e-01 5.773503e-01 -1.500000e+00
167 1 3.000000e-06 2.500000e-06 0.000000e+00 9.995443e-01 5.773503e-01 1.500000e+00
168 1 3.500000e-06 2.500000e-06 0.000000e+00 9.995301e-01 5.773503e-01 -1.500000e+00
169 1 4.000000e-06 2.500000e-06 0.000000e+00 9.995322e-01 5.773503e-01 1.500000e+00
170 1 4.500000e-06 2.500000e-06 0.000000e+00 9.995268e-01 5.773503e-01 -1.500000e+00
171 1 5.000000e-06 2.500000e-06 0.000000e+00 9.995279e-01 5.773503e-01 1.500000e+00
172 1 5.500000e-06 2.500000e-06 0.000000e+00 9.995258e-01 5.773503e-01 -1.500000e+00
173 1 6.000000e-06 2.500000e-06 0.000000e+00 9.995269e-01 5.773503e-01 1.500000e+00
174 1 6.500000e-06 2.500000e-06 0.000000e+00 9.995260e-01 5.773503e-01 -1.500000e+00
175 1 7.000000e-06 2.500000e-06 0.000000e+00 9.995272e-01 5.773503e-01 1.500000e+00
176 1 7.500000e-06 2.500000e-06 0.000000e+00 9.995270e-01 5.773503e-01 -1.500000e+00
177 1 8.000000e-06 2.500000e-06 0.000000e+00 9.995284e-01 5.773503e-01 1.500000e+00
178 1 8.500000e-06 2.500000e-06 0.000000e+00 9.995288e-01 5.773503e-01 -1.500000e+00
179 1 9.000000e-06 2.500000e-06 0.000000e+00 9.995304e-01 5.773503e-01 1.500000e+00
180 1 9.500000e-06 2.500000e-06 0.000000e+00 9.995314e-01 5.773503e-01 -1.500000e+00
181 1 1.000000e-05 2.500000e-06 0.000000e+00 9.995332e-01 5.773503e-01 1.500000e+00
182 1 1.050000e-05 2.500000e-06 0.000000e+00 9.995354e-01 5.773503e-01 -1.500000e+00
183 1 1.100000e-05 2.500000e-06 0.000000e+00 9.995377e-01 5.773503e-01 1.500000e+00
184 1 1.150000e-05 2.500000e-06 0.000000e+00 9.995432e-01 5.773503e-01 -1.500000e+00
185 1 1.200000e-05 2.500000e-06 0.000000e+00 9.995475e-01 5.773503e-01 1.500000e+00
186 1 1.250000e-05 2.500000e-06 0.000000e+00 9.995767e-01 5.773503e-01 -1.500000e+00
187 1 1.300000e-05 2.500000e-06 0.000000e+00 9.996339e-01 5.773503e-01 1.500000e+00
188 1 1.350000e-05 2.500000e-06 0.000000e+00 9.997674e-01 5.773503e-01 -1.500000e+00
189 1 1.400000e-05 2.500000e-06 0.000000e+00 9.998367e-01 5.773503e-01 1.500000e+00
190 1 1.450000e-05 2.500000e-06 0.000000e+00 9.999638e-01 5.773503e-01 -1.500000e+00
191 1 1.500000e-05 2.500000e-06 0.000000e+00 9.999829e-01 5.773503e-01 1.500000e+00
192 1 1.550000e-05 2.500000e-06 0.000000e+00 9.999999e-01 8.164966e-01 -1.500000e+00
193 1 0.000000e+00 3.000000e-06 0.000000e+00 9.999997e-01 8.164966e-01 -1.500000e+00
194 1 5.000000e-07 3.000000e-06 0.000000e+00 9.999666e-01 5.773503e-01 1.500000e+00
195 1 1.000000e-06 3.000000e-06 0.000000e+00 9.999207e-01 5.773503e-01 -1.500000e+00
196 1 1.500000e-06 3.000000e-06 0.000000e+00 9.997075e-01 5.773503e-01 1.500000e+00
197 1 2.000000e-06 3.000000e-06 0.000000e+00 9.996418e-01 5.773503e-01 -1.500000e+00
198 1 2.500000e-06 3.000000e-06 0.000000e+00 9.995317e-01 5.773503e-01 1.500000e+00
199 1 3.000000e-06 3.000000e-06 0.000000e+00 9.995382e-01 5.773503e-01 -1.500000e+00
200 1 3.500000e-06 3.000000e-06 0.000000e+00 9.995229e-01 5.773503e-01 1.500000e+00
201 1 4.000000e-06 3.000000e-06 0.000000e+00 9.995279e-01 5.773503e-01 -1.500000e+00
202 1 4.500000e-06 3.000000e-06 0.000000e+00 9.995215e-01 5.773503e-01 1.500000e+00
203 1 5.000000e-06 3.000000e-06 0.000000e+00 9.995241e-01 5.773503e-01 -1.500000e+00
204 1 5.500000e-06 3.000000e-06 0.000000e+00 9.995211e-01 5.773503e-01 1.500000e+00
205 1 6.000000e-06 3.000000e-06 0.000000e+00 9.995223e-01 5.773503e-01 -1.500000e+00
206 1 6.500000e-06 3.000000e-06 0.000000e+00 9.995209e-01 5.773503e-01 1.500000e+00
207 1 7.000000e-06 3.000000e-06 0.000000e+00 9.995217e-01 5.773503e-01 -1.500000e+00
208 1 7.500000e-06 3.000000e-06 0.000000e+00 9.995213e-01 5.773503e-01 1.500000e+00
209 1 8.000000e-06 3.000000e-06 0.000000e+00 9.995218e-01 5.773503e-01 -1.500000e+00
210 1 8.500000e-06 3.000000e-06 0.000000e+00 9.995223e-01 5.773503e-01 1.500000e+00
211 1 9.000000e-06 3.000000e-06 0.000000e+00 9.995228e-01 5.773503e-01 -1.500000e+00
212 1 9.500000e-06 3.000000e-06 0.000000e+00 9.995242e-01 5.773503e-01 1.500000e+00
213 1 1.000000e-05 3.000000e-06 0.000000e+00 9.995251e-01 5.773503e-01 -1.500000e+00
214 1 1.050000e-05 3.000000e-06 0.000000e+00 9.995282e-01 5.773503e-01 1.500000e+00
215 1 1.100000e-05 3.000000e-06 0.000000e+00 9.995304e-01 5.773503e-01 -1.500000e+00
216 1 1.150000e-05 3.000000e-06 0.000000e+00 9.995369e-01 5.773503e-01 1.500000e+00
217 1 1.200000e-05 3.000000e-06 0.000000e+00 9.995420e-01 5.773503e-01 -1.500000e+00
218 1 1.250000e-05 3.000000e-06 0.000000e+00 9.995607e-01 5.773503e-01 1.500000e+00
219 1 1.300000e-05 3.000000e-06 0.000000e+00 9.996190e-01 5.773503e-01 -1.500000e+00
220 1 1.350000e-05 3.000000e-06 0.000000e+00 9.997582e-01 5.773503e-01 1.500000e+00
221 1 1.400000e-05 3.000000e-06 0.000000e+00 9.998273e-01 5.773503e-01 -1.500000e+00
222 1 1.450000e-05 3.000000e-06 0.000000e+00 9.999609e-01 5.773503e-01 1.500000e+00
223 1 1.500000e-05 3.000000e-06 0.000000e+00 9.999815e-01 5.773503e-01 -1.500000e+00
224 1 1.550000e-05 3.000000e-06 0.000000e+00 9.999998e-01 8.164966e-01 1.500000e+00
225 1 0.000000e+00 3.500000e-06 0.000000e+00 9.999997e-01 8.164966e-01 1.500000e+00
226 1 5.000000e-07 3.500000e-06 0.000000e+00 9.999700e-01 5.773503e-01 -1.500000e+00
227 1 1.000000e-06 3.500000e-06 0.000000e+00 9.999308e-01 5.773503e-01 1.500000e+00
228 1 1.500000e-06 3.500000e-06 0.000000e+00 9.997214e-01 5.773503e-01 -1.500000e+00
229 1 2.000000e-06 3.500000e-06 0.000000e+00 9.996569e-01 5.773503e-01 1.500000e+00
230 1 2.500000e-06 3.500000e-06 0.000000e+00 9.995346e-01 5.773503e-01 -1.500000e+00
231 1 3.000000e-06 3.500000e-06 0.000000e+00 9.995405e-01 5.773503e-01 1.500000e+00
232 1 3.500000e-06 3.500000e-06 0.000000e+00 9.995247e-01 5.773503e-01 -1.500000e+00
233 1 4.000000e-06 3.500000e-06 0.000000e+00 9.995287e-01 5.773503e-01 1.500000e+00
234 1 4.500000e-06 3.500000e-06 0.000000e+00 9.995229e-01 5.773503e-01 -1.500000e+00
235 1 5.000000e-06 3.500000e-06 0.000000e+00 9.995246e-01 5.773503e-01 1.500000e+00
236 1 5.500000e-06 3.500000e-06 0.000000e+00 9.995224e-01 5.773503e-01 -1.500000e+00
237 1 6.000000e-06 3.500000e-06 0.000000e+00 9.995230e-01 5.773503e-01 1.500000e+00
238 1 6.500000e-06 3.500000e-06 0.000000e+00 9.995221e-01 5.773503e-01 -1.500000e+00
239 1 7.000000e-06 3.500000e-06 0.000000e+00 9.995226e-01 5.773503e-01 1.500000e+00
240 1 7.500000e-06 3.500000e-06 0.000000e+00 9.995223e-01 5.773503e-01 -1.500000e+00
241 1 8.000000e-06 3.500000e-06 0.000000e+00 9.995228e-01 5.773503e-01 1.500000e+00
242 1 8.500000e-06 3.500000e-06 0.000000e+00 9.995230e-01 5.773503e-01 -1.500000e+00
243 1 9.000000e-06 3.500000e-06 0.000000e+00 9.995237e-01 5.773503e-01 1.500000e+00
244 1 9.500000e-06 3.500000e-06 0.000000e+00 9.995246e-01 5.773503e-01 -1.500000e+00
245 1 1.000000e-05 3.500000e-06 0.000000e+00 9.995259e-01 5.773503e-01 1.500000e+00
246 1 1.050000e-05 3.500000e-06 0.000000e+00 9.995281e-01 5.773503e-01 -1.500000e+00
247 1 1.100000e-05 3.500000e-06 0.000000e+00 9.995309e-01 5.773503e-01 1.500000e+00
248 1 1.150000e-05 3.500000e-06 0.000000e+00 9.995368e-01 5.773503e-01 -1.500000e+00
249 1 1.200000e-05 3.500000e-06 0.000000e+00 9.995425e-01 5.773503e-01 1.500000e+00
250 1 1.250000e-05 3.500000e-06 0.000000e+00 9.995585e-01 5.773503e-01 -1.500000e+00
251 1 1.300000e-05 3.500000e-06 0.000000e+00 9.996226e-01 5.773503e-01 1.500000e+00
252 1 1.350000e-05 3.500000e-06 0.000000e+00 9.997687e-01 5.773503e-01 -1.500000e+00
253 1 1.400000e-05 3.500000e-06 0.000000e+00 9.998404e-01 5.773503e-01 1.500000e+00
254 1 1.450000e-05 3.500000e-06 0.000000e+00 9.999668e-01 5.773503e-01 -1.500000e+00
255 1 1.500000e-05 3.500000e-06 0.000000e+00 9.999847e-01 5.773503e-01 1.500000e+00
256 1 1.550000e-05 3.500000e-06 0.000000e+00 9.999999e-01 8.164966e-01 -1.500000e+00
257 1 0.000000e+00 4.000000e-06 0.000000e+00 9.999997e-01 8.164966e-01 -1.500000e+00
258 1 5.000000e-07 4.000000e-06 0.000000e+00 9.999696e-01 5.773503e-01 1.500000e+00
259 1 1.000000e-06 4.000000e-06 0.000000e+00 9.999284e-01 5.773503e-01 -1.500000e+00
260 1 1.500000e-06 4.000000e-06 0.000000e+00 9.997161e-01 5.773503e-01 1.500000e+00
261 1 2.000000e-06 4.000000e-06 0.000000e+00 9.996413e-01 5.773503e-01 -1.500000e+00
262 1 2.500000e-06 4.000000e-06 0.000000e+00 9.995304e-01 5.773503e-01 1.500000e+00
263 1 3.000000e-06 4.000000e-06 0.000000e+00 9.995359e-01 5.773503e-01 -1.500000e+00
264 1 3.500000e-06 4.000000e-06 0.000000e+00 9.995198e-01 5.773503e-01 1.500000e+00
265 1 4.000000e-06 4.000000e-06 0.000000e+00 9.995247e-01 5.773503e-01 -1.500000e+00
266 1 4.500000e-06 4.000000e-06 0.000000e+00 9.995185e-01 5.773503e-01 1.500000e+00
267 1 5.000000e-06 4.000000e-06 0.000000e+00 9.995216e-01 5.773503e-01 -1.500000e+00
268 1 5.500000e-06 4.000000e-06 0.000000e+00 9.995189e-01 5.773503e-01 1.500000e+00
269 1 6.000000e-06 4.000000e-06 0.000000e+00 9.995204e-01 5.773503e-01 -1.500000e+00
270 1 6.500000e-06 4.000000e-06 0.000000e+00 9.995192e-01 5.773503e-01 1.500000e+00
271 1 7.000000e-06 4.000000e-06 0.000000e+00 9.995198e-01 5.773503e-01 -1.500000e+00
272 1 7.500000e-06 4.000000e-06 0.000000e+00 9.995195e-01 5.773503e-01 1.500000e+00
273 1 8.000000e-06 4.000000e-06 0.000000e+00 9.995198e-01 5.773503e-01 -1.500000e+00
274 1 8.500000e-06 4.000000e-06 0.000000e+00 9.995201e-01 5.773503e-01 1.500000e+00
275 1 9.000000e-06 4.000000e-06 0.000000e+00 9.995205e-01 5.773503e-01 -1.500000e+00
276 1 9.500000e-06 4.000000e-06 0.000000e+00 9.995217e-01 5.773503e-01 1.500000e+00
277 1 1.000000e-05 4.000000e-06 0.000000e+00 9.995229e-01 5.773503e-01 -1.500000e+00
278 1 1.050000e-05 4.000000e-06 0.000000e+00 9.995256e-01 5.773503e-01 1.500000e+00
279 1 1.100000e-05 4.000000e-06 0.000000e+00 9.995284e-01 5.773503e-01 -1.500000e+00
280 1 1.150000e-05 4.000000e-06 0.000000e+00 9.995347e-01 5.773503e-01 1.500000e+00
281 1 1.200000e-05 4.000000e-06 0.000000e+00 9.995404e-01 5.773503e-01 -1.500000e+00
282 1 1.250000e-05 4.000000e-06 0.000000e+00 9.995565e-01 5.773503e-01 1.500000e+00
283 1 1.300000e-05 4.000000e-06 0.000000e+00 9.996129e-01 5.773503e-01 -1.500000e+00
284 1 1.350000e-05 4.000000e-06 0.000000e+00 9.997618e-01 5.773503e-01 1.500000e+00
285 1 1.400000e-05 4.000000e-06 0.000000e+00 9.998352e-01 5.773503e-01 -1.500000e+00
286 1 1.450000e-05 4.000000e-06 0.000000e+00 9.999655e-01 5.773503e-01 1.500000e+00
287 1 1.500000e-05 4.000000e-06 0.000000e+00 9.999844e-01 5.773503e-01 -1.500000e+00
288 1 1.550000e-05 4.000000e-06 0.000000e+00 9.999999e-01 8.164966e-01 1.500000e+00
289 1 0.000000e+00 4.500000e-06 0.000000e+00 9.999997e-01 8.164966e-01 1.500000e+00
290 1 5.000000e-07 4.500000e-06 0.000000e+00 9.999712e-01 5.773503e-01 -1.500000e+00
291 1 1.000000e-06 4.500000e-06 0.000000e+00 9.999333e-01 5.773503e-01 1.500000e+00
292 1 1.500000e-06 4.500000e-06 0.000000e+00 9.997255e-01 5.773503e-01 -1.500000e+00
293 1 2.000000e-06 4.500000e-06 0.000000e+00 9.996572e-01 5.773503e-01 1.500000e+00
294 1 2.500000e-06 4.500000e-06 0.000000e+00 9.995323e-01 5.773503e-01 -1.500000e+00
295 1 3.000000e-06 4.500000e-06 0.000000e+00 9.995380e-01 5.773503e-01 1.500000e+00
296 1 3.500000e-06 4.500000e-06 0.000000e+00 9.995206e-01 5.773503e-01 -1.500000e+00
297 1 4.000000e-06 4.500000e-06 0.000000e+00 9.995252e-01 5.773503e-01 1.500000e+00
298 1 4.500000e-06 4.500000e-06 0.000000e+00 9.995187e-01 5.773503e-01 -1.500000e+00
299 1 5.000000e-06 4.500000e-06 0.000000e+00 9.995213e-01 5.773503e-01 1.500000e+00
300 1 5.500000e-06 4.500000e-06 0.000000e+00 9.995188e-01 5.773503e-01 -1.500000e+00
301 1 6.000000e-06 4.500000e-06 0.000000e+00 9.995198e-01 5.773503e-01 1.500000e+00
302 1 6.500000e-06 4.500000e-06 0.000000e+00 9.995189e-01 5.773503e-01 -1.500000e+00
303 1 7.000000e-06 4.500000e-06 0.000000e+00 9.995193e-01 5.773503e-01 1.500000e+00
304 1 7.500000e-06 4.500000e-06 0.000000e+00 9.995191e-01 5.773503e-01 -1.500000e+00
305 1 8.000000e-06 4.500000e-06 0.000000e+00 9.995194e-01 5.773503e-01 1.500000e+00
306 1 8.500000e-06 4.500000e-06 0.000000e+00 9.995195e-01 5.773503e-01 -1.500000e+00
307 1 9.000000e-06 4.500000e-06 0.000000e+00 9.995200e-01 5.773503e-01 1.500000e+00
308 1 9.500000e-06 4.500000e-06 0.000000e+00 9.995209e-01 5.773503e-01 -1.500000e+00
309 1 1.000000e-05 4.500000e-06 0.000000e+00 9.995223e-01 5.773503e-01 1.500000e+00
310 1 1.050000e-05 4.500000e-06 0.000000e+00 9.995248e-01 5.773503e-01 -1.500000e+00
311 1 1.100000e-05 4.500000e-06 0.000000e+00 9.995280e-01 5.773503e-01 1.500000e+00
312 1 1.150000e-05 4.500000e-06 0.000000e+00 9.995347e-01 5.773503e-01 -1.500000e+00
313 1 1.200000e-05 4.500000e-06 0.000000e+00 9.995408e-01 5.773503e-01 1.500000e+00
314 1 1.250000e-05 4.500000e-06 0.000000e+00 9.995582e-01 5.773503e-01 -1.500000e+00
315 1 1.300000e-05 4.500000e-06 0.000000e+00 9.996209e-01 5.773503e-01 1.500000e+00
316 1 1.350000e-05 4.500000e-06 0.000000e+00 9.997740e-01 5.773503e-01 -1.500000e+00
317 1 1.400000e-05 4.500000e-06 0.000000e+00 9.998442e-01 5.773503e-01 1.500000e+00
318 1 1.450000e-05 4.500000e-06 0.000000e+00 9.999686e-01 5.773503e-01 -1.500000e+00
319 1 1.500000e-05 4.500000e-06 0.000000e+00 9.999857e-01 5.773503e-01 1.500000e+00
320 1 1.550000e-05 4.500000e-06 0.000000e+00 9.999999e-01 8.164966e-01 -1.500000e+00
321 1 0.000000e+00 5.000000e-06 0.000000e+00 9.999997e-01 8.164966e-01 -1.500000e+00
322 1 5.000000e-07 5.000000e-06 0.000000e+00 9.999712e-01 5.773503e-01 1.500000e+00
323 1 1.000000e-06 5.000000e-06 0.000000e+00 9.999326e-01 5.773503e-01 -1.500000e+00
324 1 1.500000e-06 5.000000e-06 0.000000e+00 9.997239e-01 5.773503e-01 1.500000e+00
325 1 2.000000e-06 5.000000e-06 0.000000e+00 9.996500e-01 5.773503e-01 -1.500000e+00
326 1 2.500000e-06 5.000000e-06 0.000000e+00 9.995306e-01 5.773503e-01 1.500000e+00
327 1 3.000000e-06 5.000000e-06 0.000000e+00 9.995355e-01 5.773503e-01 -1.500000e+00
328 1 3.500000e-06 5.000000e-06 0.000000e+00 9.995181e-01 5.773503e-01 1.500000e+00
329 1 4.000000e-06 5.000000e-06 0.000000e+00 9.995226e-01 5.773503e-01 -1.500000e+00
330 1 4.500000e-06 5.000000e-06 0.000000e+00 9.995158e-01 5.773503e-01 1.500000e+00
331 1 5.000000e-06 5.000000e-06 0.000000e+00 9.995190e-01 5.773503e-01 -1.500000e+00
332 1 5.500000e-06 5.000000e-06 0.000000e+00 9.995164e-01 5.773503e-01 1.500000e+00
333 1 6.000000e-06 5.000000e-06 0.000000e+00 9.995180e-01 5.773503e-01 -1.500000e+00
334 1 6.500000e-06 5.000000e-06 0.000000e+00 9.995170e-01 5.773503e-01 1.500000e+00
335 1 7.000000e-06 5.000000e-06 0.000000e+00 9.995178e-01 5.773503e-01 -1.500000e+00
336 1 7.500000e-06 5.000000e-06 0.000000e+00 9.995176e-01 5.773503e-01 1.500000e+00
337 1 8.000000e-06 5.000000e-06 0.000000e+00 9.995182e-01 5.773503e-01 -1.500000e+00
338 1 8.500000e-06 5.000000e-06 0.000000e+00 9.995184e-01 5.773503e-01 1.500000e+00
339 1 9.000000e-06 5.000000e-06 0.000000e+00 9.995190e-01 5.773503e-01 -1.500000e+00
340 1 9.500000e-06 5.000000e-06 0.000000e+00 9.995200e-01 5.773503e-01 1.500000e+00
341 1 1.000000e-05 5.000000e-06 0.000000e+00 9.995214e-01 5.773503e-01 -1.500000e+00
342 1 1.050000e-05 5.000000e-06 0.000000e+00 9.995241e-01 5.773503e-01 1.500000e+00
343 1 1.100000e-05 5.000000e-06 0.000000e+00 9.995271e-01 5.773503e-01 -1.500000e+00
344 1 1.150000e-05 5.000000e-06 0.000000e+00 9.995339e-01 5.773503e-01 1.500000e+00
345 1 1.200000e-05 5.000000e-06 0.000000e+00 9.995394e-01 5.773503e-01 -1.500000e+00
346 1 1.250000e-05 5.000000e-06 0.000000e+00 9.995568e-01 5.773503e-01 1.500000e+00
347 1 1.300000e-05 5.000000e-06 0.000000e+00 9.996148e-01 5.773503e-01 -1.500000e+00
348 1 1.350000e-05 5.000000e-06 0.000000e+00 9.997696e-01 5.773503e-01 1.500000e+00
349 1 1.400000e-05 5.000000e-06 0.000000e+00 9.998429e-01 5.773503e-01 -1.500000e+00
350 1 1.450000e-05 5.000000e-06 0.000000e+00 9.999681e-01 5.773503e-01 1.500000e+00
351 1 1.500000e-05 5.000000e-06 0.000000e+00 9.999856e-01 5.773503e-01 -1.500000e+00
352 1 1.550000e-05 5.000000e-06 0.000000e+00 9.999999e-01 8.164966e-01 1.500000e+00
353 1 0.000000e+00 5.500000e-06 0.000000e+00 9.999997e-01 8.164966e-01 1.500000e+00
354 1 5.000000e-07 5.500000e-06 0.000000e+00 9.999718e-01 5.773503e-01 -1.500000e+00