ITEM: TIMESTEP
7
ITEM: NUMBER OF ATOMS
16384
ITEM: BOX BOUNDS pp pp pp
0.0 1.600000e-05
0.0 1.600000e-05
0.0 8.000000e-06
ITEM: ATOMS id type x y z crack plastic psi
1 1 0.000000e+00 0.000000e+00 0.000000e+00 9.999905e-01 1.000000e+00 -1.500000e+00
2 1 5.000000e-07 0.000000e+00 0.000000e+00 9.999149e-01 8.164966e-01 1.500000e+00
3 1 1.000000e-06 0.000000e+00 0.000000e+00 9.999031e-01 8.164966e-01 -1.500000e+00
4 1 1.500000e-06 0.000000e+00 0.000000e+00 9.997187e-01 8.164966e-01 1.500000e+00
5 1 2.000000e-06 0.000000e+00 0.000000e+00 9.996790e-01 8.164966e-01 -1.500000e+00
6 1 2.500000e-06 0.000000e+00 0.000000e+00 9.995039e-01 8.164966e-01 1.500000e+00
7 1 3.000000e-06 0.000000e+00 0.000000e+00 9.995104e-01 8.164966e-01 -1.500000e+00
8 1 3.500000e-06 0.000000e+00 0.000000e+00 9.994033e-01 8.164966e-01 1.500000e+00
9 1 4.000000e-06 0.000000e+00 0.000000e+00 9.994318e-01 8.164966e-01 -1.500000e+00
10 1 4.500000e-06 0.000000e+00 0.000000e+00 9.993700e-01 8.164966e-01 1.500000e+00
11 1 5.000000e-06 0.000000e+00 0.000000e+00 9.993973e-01 8.164966e-01 -1.500000e+00
12 1 5.500000e-06 0.000000e+00 0.000000e+00 9.993606e-01 8.164966e-01 1.500000e+00
13 1 6.000000e-06 0.000000e+00 0.000000e+00 9.993832e-01 8.164966e-01 -1.500000e+00
14 1 6.500000e-06 0.000000e+00 0.000000e+00 9.993615e-01 8.164966e-01 1.500000e+00
15 1 7.000000e-06 0.000000e+00 0.000000e+00 9.993811e-01 8.164966e-01 -1.500000e+00
16 1 7.500000e-06 0.000000e+00 0.000000e+00 9.993708e-01 8.164966e-01 1.500000e+00
17 1 8.000000e-06 0.000000e+00 0.000000e+00 9.993896e-01 8.164966e-01 -1.500000e+00
18 1 8.500000e-06 0.000000e+00 0.000000e+00 9.993888e-01 8.164966e-01 1.500000e+00
19 1 9.000000e-06 0.000000e+00 0.000000e+00 9.994081e-01 8.164966e-01 -1.500000e+00
20 1 9.500000e-06 0.000000e+00 0.000000e+00 9.994189e-01 8.164966e-01 1.500000e+00
21 1 1.000000e-05 0.000000e+00 0.000000e+00 9.994409e-01 8.164966e-01 -1.500000e+00
22 1 1.050000e-05 0.000000e+00 0.000000e+00 9.994682e-01 8.164966e-01 1.500000e+00
23 1 1.100000e-05 0.000000e+00 0.000000e+00 9.994962e-01 8.164966e-01 -1.500000e+00
24 1 1.150000e-05 0.000000e+00 0.000000e+00 9.995469e-01 8.164966e-01 1.500000e+00
25 1 1.200000e-05 0.000000e+00 0.000000e+00 9.995815e-01 8.164966e-01 -1.500000e+00
26 1 1.250000e-05 0.000000e+00 0.000000e+00 9.996617e-01 8.164966e-01 1.500000e+00
27 1 1.300000e-05 0.000000e+00 0.000000e+00 9.996915e-01 8.164966e-01 -1.500000e+00
28 1 1.350000e-05 0.000000e+00 0.000000e+00 9.998025e-01 8.164966e-01 1.500000e+00
29 1 1.400000e-05 0.000000e+00 0.000000e+00 9.998070e-01 8.164966e-01 -1.500000e+00
30 1 1.450000e-05 0.000000e+00 0.000000e+00 9.999305e-01 8.164966e-01 1.500000e+00
31 1 1.500000e-05 0.000000e+00 0.000000e+00 9.999203e-01 8.164966e-01 -1.500000e+00
32 1 1.550000e-05 0.000000e+00 0.000000e+00 9.999909e-01 1.000000e+00 1.500000e+00
33 1 0.000000e+00 5.000000e-07 0.000000e+00 9.999951e-01 8.164966e-01 1.500000e+00
34 1 5.000000e-07 5.000000e-07 0.000000e+00 9.998512e-01 5.773503e-01 -1.500000e+00
35 1 1.000000e-06 5.000000e-07 0.000000e+00 9.997027e-01 5.773503e-01 1.500000e+00
36 1 1.500000e-06 5.000000e-07 0.000000e+00 9.993075e-01 5.773503e-01 -1.500000e+00
37 1 2.000000e-06 5.000000e-07 0.000000e+00 9.991845e-01 5.773503e-01 1.500000e+00
38 1 2.500000e-06 5.000000e-07 0.000000e+00 9.989433e-01 5.773503e-01 -1.500000e+00
39 1 3.000000e-06 5.000000e-07 0.000000e+00 9.989323e-01 5.773503e-01 1.500000e+00
40 1 3.500000e-06 5.000000e-07 0.000000e+00 9.988269e-01 5.773503e-01 -1.500000e+00
41 1 4.000000e-06 5.000000e-07 0.000000e+00 9.988447e-01 5.773503e-01 1.500000e+00
42 1 4.500000e-06 5.000000e-07 0.000000e+00 9.988299e-01 5.773503e-01 -1.500000e+00
43 1 5.000000e-06 5.000000e-07 0.000000e+00 9.988406e-01 5.773503e-01 1.500000e+00
44 1 5.500000e-06 5.000000e-07 0.000000e+00 9.988325e-01 5.773503e-01 -1.500000e+00
45 1 6.000000e-06 5.000000e-07 0.000000e+00 9.988385e-01 5.773503e-01 1.500000e+00
46 1 6.500000e-06 5.000000e-07 0.000000e+00 9.988348e-01 5.773503e-01 -1.500000e+00
47 1 7.000000e-06 5.000000e-07 0.000000e+00 9.988385e-01 5.773503e-01 1.500000e+00
48 1 7.500000e-06 5.000000e-07 0.000000e+00 9.988384e-01 5.773503e-01 -1.500000e+00
49 1 8.000000e-06 5.000000e-07 0.000000e+00 9.988419e-01 5.773503e-01 1.500000e+00
50 1 8.500000e-06 5.000000e-07 0.000000e+00 9.988438e-01 5.773503e-01 -1.500000e+00
51 1 9.000000e-06 5.000000e-07 0.000000e+00 9.988480e-01 5.773503e-01 1.500000e+00
52 1 9.500000e-06 5.000000e-07 0.000000e+00 9.988681e-01 5.773503e-01 -1.500000e+00
53 1 1.000000e-05 5.000000e-07 0.000000e+00 9.988771e-01 5.773503e-01 1.500000e+00
54 1 1.050000e-05 5.000000e-07 0.000000e+00 9.989543e-01 5.773503e-01 -1.500000e+00
55 1 1.100000e-05 5.000000e-07 0.000000e+00 9.989826e-01 5.773503e-01 1.500000e+00
56 1 1.150000e-05 5.000000e-07 0.000000e+00 9.990939e-01 5.773503e-01 -1.500000e+00
57 1 1.200000e-05 5.000000e-07 0.000000e+00 9.991515e-01 5.773503e-01 1.500000e+00
58 1 1.250000e-05 5.000000e-07 0.000000e+00 9.993055e-01 5.773503e-01 -1.500000e+00
59 1 1.300000e-05 5.000000e-07 0.000000e+00 9.993906e-01 5.773503e-01 1.500000e+00
60 1 1.350000e-05 5.000000e-07 0.000000e+00 9.995896e-01 5.773503e-01 -1.500000e+00
61 1 1.400000e-05 5.000000e-07 0.000000e+00 9.996667e-01 5.773503e-01 1.500000e+00
62 1 1.450000e-05 5.000000e-07 0.000000e+00 9.998789e-01 5.773503e-01 -1.500000e+00
63 1 1.500000e-05 5.000000e-07 0.000000e+00 9.999024e-01 5.773503e-01 1.500000e+00
64 1 1.550000e-05 5.000000e-07 0.000000e+00 9.999969e-01 8.164966e-01 -1.500000e+00
65 1 0.000000e+00 1.000000e-06 0.000000e+00 9.999874e-01 8.164966e-01 -1.500000e+00
66 1 5.000000e-07 1.000000e-06 0.000000e+00 9.998091e-01 5.773503e-01 1.500000e+00
67 1 1.000000e-06 1.000000e-06 0.000000e+00 9.996957e-01 5.773503e-01 -1.500000e+00
68 1 1.500000e-06 1.000000e-06 0.000000e+00 9.991991e-01 5.773503e-01 1.500000e+00
69 1 2.000000e-06 1.000000e-06 0.000000e+00 9.991376e-01 5.773503e-01 -1.500000e+00
70 1 2.500000e-06 1.000000e-06 0.000000e+00 9.987511e-01 5.773503e-01 1.500000e+00
71 1 3.000000e-06 1.000000e-06 0.000000e+00 9.987523e-01 5.773503e-01 -1.500000e+00
72 1 3.500000e-06 1.000000e-06 0.000000e+00 9.987107e-01 5.773503e-01 1.500000e+00
73 1 4.000000e-06 1.000000e-06 0.000000e+00 9.987176e-01 5.773503e-01 -1.500000e+00
74 1 4.500000e-06 1.000000e-06 0.000000e+00 9.986970e-01 5.773503e-01 1.500000e+00
75 1 5.000000e-06 1.000000e-06 0.000000e+00 9.987042e-01 5.773503e-01 -1.500000e+00
76 1 5.500000e-06 1.000000e-06 0.000000e+00 9.986931e-01 5.773503e-01 1.500000e+00
77 1 6.000000e-06 1.000000e-06 0.000000e+00 9.986998e-01 5.773503e-01 -1.500000e+00
78 1 6.500000e-06 1.000000e-06 0.000000e+00 9.986941e-01 5.773503e-01 1.500000e+00
79 1 7.000000e-06 1.000000e-06 0.000000e+00 9.986999e-01 5.773503e-01 -1.500000e+00
80 1 7.500000e-06 1.000000e-06 0.000000e+00 9.986983e-01 5.773503e-01 1.500000e+00
81 1 8.000000e-06 1.000000e-06 0.000000e+00 9.987037e-01 5.773503e-01 -1.500000e+00
82 1 8.500000e-06 1.000000e-06 0.000000e+00 9.987055e-01 5.773503e-01 1.500000e+00
83 1 9.000000e-06 1.000000e-06 0.000000e+00 9.987112e-01 5.773503e-01 -1.500000e+00
84 1 9.500000e-06 1.000000e-06 0.000000e+00 9.987169e-01 5.773503e-01 1.500000e+00
85 1 1.000000e-05 1.000000e-06 0.000000e+00 9.987235e-01 5.773503e-01 -1.500000e+00
86 1 1.050000e-05 1.000000e-06 0.000000e+00 9.987348e-01 5.773503e-01 1.500000e+00
87 1 1.100000e-05 1.000000e-06 0.000000e+00 9.987420e-01 5.773503e-01 -1.500000e+00
88 1 1.150000e-05 1.000000e-06 0.000000e+00 9.987631e-01 5.773503e-01 1.500000e+00
89 1 1.200000e-05 1.000000e-06 0.000000e+00 9.987850e-01 5.773503e-01 -1.500000e+00
90 1 1.250000e-05 1.000000e-06 0.000000e+00 9.989908e-01 5.773503e-01 1.500000e+00
91 1 1.300000e-05 1.000000e-06 0.000000e+00 9.990515e-01 5.773503e-01 -1.500000e+00
92 1 1.350000e-05 1.000000e-06 0.000000e+00 9.993755e-01 5.773503e-01 1.500000e+00
93 1 1.400000e-05 1.000000e-06 0.000000e+00 9.994588e-01 5.773503e-01 -1.500000e+00
94 1 1.450000e-05 1.000000e-06 0.000000e+00 9.998123e-01 5.773503e-01 1.500000e+00
95 1 1.500000e-05 1.000000e-06 0.000000e+00 9.998507e-01 5.773503e-01 -1.500000e+00
96 1 1.550000e-05 1.000000e-06 0.000000e+00 9.999921e-01 8.164966e-01 1.500000e+00
97 1 0.000000e+00 1.500000e-06 0.000000e+00 9.999965e-01 8.164966e-01 1.500000e+00
98 1 5.000000e-07 1.500000e-06 0.000000e+00 9.998498e-01 5.773503e-01 -1.500000e+00
99 1 1.000000e-06 1.500000e-06 0.000000e+00 9.997123e-01 5.773503e-01 1.500000e+00
100 1 1.500000e-06 1.500000e-06 0.000000e+00 9.991995e-01 5.773503e-01 -1.500000e+00
101 1 2.000000e-06 1.500000e-06 0.000000e+00 9.990161e-01 5.773503e-01 1.500000e+00
102 1 2.500000e-06 1.500000e-06 0.000000e+00 9.987514e-01 5.773503e-01 -1.500000e+00
103 1 3.000000e-06 1.500000e-06 0.000000e+00 9.987529e-01 5.773503e-01 1.500000e+00
104 1 3.500000e-06 1.500000e-06 0.000000e+00 9.987227e-01 5.773503e-01 -1.500000e+00
105 1 4.000000e-06 1.500000e-06 0.000000e+00 9.987283e-01 5.773503e-01 1.500000e+00
106 1 4.500000e-06 1.500000e-06 0.000000e+00 9.987161e-01 5.773503e-01 -1.500000e+00
107 1 5.000000e-06 1.500000e-06 0.000000e+00 9.987226e-01 5.773503e-01 1.500000e+00
108 1 5.500000e-06 1.500000e-06 0.000000e+00 9.987170e-01 5.773503e-01 -1.500000e+00
109 1 6.000000e-06 1.500000e-06 0.000000e+00 9.987230e-01 5.773503e-01 1.500000e+00
110 1 6.500000e-06 1.500000e-06 0.000000e+00 9.987205e-01 5.773503e-01 -1.500000e+00
111 1 7.000000e-06 1.500000e-06 0.000000e+00 9.987259e-01 5.773503e-01 1.500000e+00
112 1 7.500000e-06 1.500000e-06 0.000000e+00 9.987256e-01 5.773503e-01 -1.500000e+00
113 1 8.000000e-06 1.500000e-06 0.000000e+00 9.987309e-01 5.773503e-01 1.500000e+00
114 1 8.500000e-06 1.500000e-06 0.000000e+00 9.987325e-01 5.773503e-01 -1.500000e+00
115 1 9.000000e-06 1.500000e-06 0.000000e+00 9.987385e-01 5.773503e-01 1.500000e+00
116 1 9.500000e-06 1.500000e-06 0.000000e+00 9.987425e-01 5.773503e-01 -1.500000e+00
117 1 1.000000e-05 1.500000e-06 0.000000e+00 9.987499e-01 5.773503e-01 1.500000e+00
118 1 1.050000e-05 1.500000e-06 0.000000e+00 9.987569e-01 5.773503e-01 -1.500000e+00
119 1 1.100000e-05 1.500000e-06 0.000000e+00 9.987659e-01 5.773503e-01 1.500000e+00
120 1 1.150000e-05 1.500000e-06 0.000000e+00 9.987791e-01 5.773503e-01 -1.500000e+00
121 1 1.200000e-05 1.500000e-06 0.000000e+00 9.988319e-01 5.773503e-01 1.500000e+00
122 1 1.250000e-05 1.500000e-06 0.000000e+00 9.989813e-01 5.773503e-01 -1.500000e+00
123 1 1.300000e-05 1.500000e-06 0.000000e+00 9.990713e-01 5.773503e-01 1.500000e+00
124 1 1.350000e-05 1.500000e-06 0.000000e+00 9.993475e-01 5.773503e-01 -1.500000e+00
125 1 1.400000e-05 1.500000e-06 0.000000e+00 9.994746e-01 5.773503e-01 1.500000e+00
126 1 1.450000e-05 1.500000e-06 0.000000e+00 9.998342e-01 5.773503e-01 -1.500000e+00
127 1 1.500000e-05 1.500000e-06 0.000000e+00 9.998995e-01 5.773503e-01 1.500000e+00
128 1 1.550000e-05 1.500000e-06 0.000000e+00 9.999978e-01 8.164966e-01 -1.500000e+00
129 1 0.000000e+00 2.000000e-06 0.000000e+00 9.999949e-01 8.164966e-01 -1.500000e+00
130 1 5.000000e-07 2.000000e-06 0.000000e+00 9.998356e-01 5.773503e-01 1.500000e+00
131 1 1.000000e-06 2.000000e-06 0.000000e+00 9.996800e-01 5.773503e-01 -1.500000e+00
132 1 1.500000e-06 2.000000e-06 0.000000e+00 9.991322e-01 5.773503e-01 1.500000e+00
133 1 2.000000e-06 2.000000e-06 0.000000e+00 9.990292e-01 5.773503e-01 -1.500000e+00
134 1 2.500000e-06 2.000000e-06 0.000000e+00 9.987261e-01 5.773503e-01 1.500000e+00
135 1 3.000000e-06 2.000000e-06 0.000000e+00 9.987409e-01 5.773503e-01 -1.500000e+00
136 1 3.500000e-06 2.000000e-06 0.000000e+00 9.987036e-01 5.773503e-01 1.500000e+00
137 1 4.000000e-06 2.000000e-06 0.000000e+00 9.987124e-01 5.773503e-01 -1.500000e+00
138 1 4.500000e-06 2.000000e-06 0.000000e+00 9.986951e-01 5.773503e-01 1.500000e+00
139 1 5.000000e-06 2.000000e-06 0.000000e+00 9.987001e-01 5.773503e-01 -1.500000e+00
140 1 5.500000e-06 2.000000e-06 0.000000e+00 9.986914e-01 5.773503e-01 1.500000e+00
141 1 6.000000e-06 2.000000e-06 0.000000e+00 9.986952e-01 5.773503e-01 -1.500000e+00
142 1 6.500000e-06 2.000000e-06 0.000000e+00 9.986910e-01 5.773503e-01 1.500000e+00
143 1 7.000000e-06 2.000000e-06 0.000000e+00 9.986944e-01 5.773503e-01 -1.500000e+00
144 1 7.500000e-06 2.000000e-06 0.000000e+00 9.986932e-01 5.773503e-01 1.500000e+00
145 1 8.000000e-06 2.000000e-06 0.000000e+00 9.986965e-01 5.773503e-01 -1.500000e+00
146 1 8.500000e-06 2.000000e-06 0.000000e+00 9.986979e-01 5.773503e-01 1.500000e+00
147 1 9.000000e-06 2.000000e-06 0.000000e+00 9.987011e-01 5.773503e-01 -1.500000e+00
148 1 9.500000e-06 2.000000e-06 0.000000e+00 9.987057e-01 5.773503e-01 1.500000e+00
149 1 1.000000e-05 2.000000e-06 0.000000e+00 9.987087e-01 5.773503e-01 -1.500000e+00
150 1 1.050000e-05 2.000000e-06 0.000000e+00 9.987177e-01 5.773503e-01 1.500000e+00
151 1 1.100000e-05 2.000000e-06 0.000000e+00 9.987213e-01 5.773503e-01 -1.500000e+00
152 1 1.150000e-05 2.000000e-06 0.000000e+00 9.987388e-01 5.773503e-01 1.500000e+00
153 1 1.200000e-05 2.000000e-06 0.000000e+00 9.987469e-01 5.773503e-01 -1.500000e+00
154 1 1.250000e-05 2.000000e-06 0.000000e+00 9.988665e-01 5.773503e-01 1.500000e+00
155 1 1.300000e-05 2.000000e-06 0.000000e+00 9.989646e-01 5.773503e-01 -1.500000e+00
156 1 1.350000e-05 2.000000e-06 0.000000e+00 9.992879e-01 5.773503e-01 1.500000e+00
157 1 1.400000e-05 2.000000e-06 0.000000e+00 9.994323e-01 5.773503e-01 -1.500000e+00
158 1 1.450000e-05 2.000000e-06 0.000000e+00 9.998149e-01 5.773503e-01 1.500000e+00
159 1 1.500000e-05 2.000000e-06 0.000000e+00 9.998864e-01 5.773503e-01 -1.500000e+00
160 1 1.550000e-05 2.000000e-06 0.000000e+00 9.999970e-01 8.164966e-01 1.500000e+00
161 1 0.000000e+00 2.500000e-06 0.000000e+00 9.999970e-01 8.164966e-01 1.500000e+00
162 1 5.000000e-07 2.500000e-06 0.000000e+00 9.998586e-01 5.773503e-01 -1.500000e+00
163 1 1.000000e-06 2.500000e-06 0.000000e+00 9.997254e-01 5.773503e-01 1.500000e+00
164 1 1.500000e-06 2.500000e-06 0.000000e+00 9.991700e-01 5.773503e-01 -1.500000e+00
165 1 2.000000e-06 2.500000e-06 0.000000e+00 9.990206e-01 5.773503e-01 1.500000e+00
166 1 2.500000e-06 2.500000e-06 0.000000e+00 9.987368e-01 5.773503e-01 -1.500000e+00
167 1 3.000000e-06 2.500000e-06 0.000000e+00 9.987464e-01 5.773503e-01 1.500000e+00
168 1 3.500000e-06 2.500000e-06 0.000000e+00 9.987132e-01 5.773503e-01 -1.500000e+00
169 1 4.000000e-06 2.500000e-06 0.000000e+00 9.987181e-01 5.773503e-01 1.500000e+00
170 1 4.500000e-06 2.500000e-06 0.000000e+00 9.987056e-01 5.773503e-01 -1.500000e+00
171 1 5.000000e-06 2.500000e-06 0.000000e+00 9.987082e-01 5.773503e-01 1.500000e+00
172 1 5.500000e-06 2.500000e-06 0.000000e+00 9.987033e-01 5.773503e-01 -1.500000e+00
173 1 6.000000e-06 2.500000e-06 0.000000e+00 9.987057e-01 5.773503e-01 1.500000e+00
174 1 6.500000e-06 2.500000e-06 0.000000e+00 9.987036e-01 5.773503e-01 -1.500000e+00
175 1 7.000000e-06 2.500000e-06 0.000000e+00 9.987065e-01 5.773503e-01 1.500000e+00
176 1 7.500000e-06 2.500000e-06 0.000000e+00 9.987060e-01 5.773503e-01 -1.500000e+00
177 1 8.000000e-06 2.500000e-06 0.000000e+00 9.987094e-01 5.773503e-01 1.500000e+00
178 1 8.500000e-06 2.500000e-06 0.000000e+00 9.987102e-01 5.773503e-01 -1.500000e+00
179 1 9.000000e-06 2.500000e-06 0.000000e+00 9.987139e-01 5.773503e-01 1.500000e+00
180 1 9.500000e-06 2.500000e-06 0.000000e+00 9.987162e-01 5.773503e-01 -1.500000e+00
181 1 1.000000e-05 2.500000e-06 0.000000e+00 9.987204e-01 5.773503e-01 1.500000e+00
182 1 1.050000e-05 2.500000e-06 0.000000e+00 9.987256e-01 5.773503e-01 -1.500000e+00
183 1 1.100000e-05 2.500000e-06 0.000000e+00 9.987311e-01 5.773503e-01 1.500000e+00
184 1 1.150000e-05 2.500000e-06 0.000000e+00 9.987437e-01 5.773503e-01 -1.500000e+00
185 1 1.200000e-05 2.500000e-06 0.000000e+00 9.987538e-01 5.773503e-01 1.500000e+00
186 1 1.250000e-05 2.500000e-06 0.000000e+00 9.988212e-01 5.773503e-01 -1.500000e+00
187 1 1.300000e-05 2.500000e-06 0.000000e+00 9.989539e-01 5.773503e-01 1.500000e+00
188 1 1.350000e-05 2.500000e-06 0.000000e+00 9.992802e-01 5.773503e-01 -1.500000e+00
189 1 1.400000e-05 2.500000e-06 0.000000e+00 9.994616e-01 5.773503e-01 1.500000e+00
190 1 1.450000e-05 2.500000e-06 0.000000e+00 9.998444e-01 5.773503e-01 -1.500000e+00
191 1 1.500000e-05 2.500000e-06 0.000000e+00 9.999158e-01 5.773503e-01 1.500000e+00
192 1 1.550000e-05 2.500000e-06 0.000000e+00 9.999984e-01 8.164966e-01 -1.500000e+00
193 1 0.000000e+00 3.000000e-06 0.000000e+00 9.999967e-01 8.164966e-01 -1.500000e+00
194 1 5.000000e-07 3.000000e-06 0.000000e+00 9.998542e-01 5.773503e-01 1.500000e+00
195 1 1.000000e-06 3.000000e-06 0.000000e+00 9.997032e-01 5.773503e-01 -1.500000e+00
196 1 1.500000e-06 3.000000e-06 0.000000e+00 9.991295e-01 5.773503e-01 1.500000e+00
197 1 2.000000e-06 3.000000e-06 0.000000e+00 9.989725e-01 5.773503e-01 -1.500000e+00
198 1 2.500000e-06 3.000000e-06 0.000000e+00 9.987170e-01 5.773503e-01 1.500000e+00
199 1 3.000000e-06 3.000000e-06 0.000000e+00 9.987321e-01 5.773503e-01 -1.500000e+00
200 1 3.500000e-06 3.000000e-06 0.000000e+00 9.986966e-01 5.773503e-01 1.500000e+00
201 1 4.000000e-06 3.000000e-06 0.000000e+00 9.987083e-01 5.773503e-01 -1.500000e+00
202 1 4.500000e-06 3.000000e-06 0.000000e+00 9.986932e-01 5.773503e-01 1.500000e+00
203 1 5.000000e-06 3.000000e-06 0.000000e+00 9.986994e-01 5.773503e-01 -1.500000e+00
204 1 5.500000e-06 3.000000e-06 0.000000e+00 9.986924e-01 5.773503e-01 1.500000e+00
205 1 6.000000e-06 3.000000e-06 0.000000e+00 9.986953e-01 5.773503e-01 -1.500000e+00
206 1 6.500000e-06 3.000000e-06 0.000000e+00 9.986920e-01 5.773503e-01 1.500000e+00
207 1 7.000000e-06 3.000000e-06 0.000000e+00 9.986937e-01 5.773503e-01 -1.500000e+00
208 1 7.500000e-06 3.000000e-06 0.000000e+00 9.986928e-01 5.773503e-01 1.500000e+00
209 1 8.000000e-06 3.000000e-06 0.000000e+00 9.986940e-01 5.773503e-01 -1.500000e+00
210 1 8.500000e-06 3.000000e-06 0.000000e+00 9.986951e-01 5.773503e-01 1.500000e+00
211 1 9.000000e-06 3.000000e-06 0.000000e+00 9.986964e-01 5.773503e-01 -1.500000e+00
212 1 9.500000e-06 3.000000e-06 0.000000e+00 9.986997e-01 5.773503e-01 1.500000e+00
213 1 1.000000e-05 3.000000e-06 0.000000e+00 9.987017e-01 5.773503e-01 -1.500000e+00
214 1 1.050000e-05 3.000000e-06 0.000000e+00 9.987089e-01 5.773503e-01 1.500000e+00
215 1 1.100000e-05 3.000000e-06 0.000000e+00 9.987140e-01 5.773503e-01 -1.500000e+00
216 1 1.150000e-05 3.000000e-06 0.000000e+00 9.987291e-01 5.773503e-01 1.500000e+00
217 1 1.200000e-05 3.000000e-06 0.000000e+00 9.987409e-01 5.773503e-01 -1.500000e+00
218 1 1.250000e-05 3.000000e-06 0.000000e+00 9.987846e-01 5.773503e-01 1.500000e+00
219 1 1.300000e-05 3.000000e-06 0.000000e+00 9.989189e-01 5.773503e-01 -1.500000e+00
220 1 1.350000e-05 3.000000e-06 0.000000e+00 9.992568e-01 5.773503e-01 1.500000e+00
221 1 1.400000e-05 3.000000e-06 0.000000e+00 9.994363e-01 5.773503e-01 -1.500000e+00
222 1 1.450000e-05 3.000000e-06 0.000000e+00 9.998343e-01 5.773503e-01 1.500000e+00
223 1 1.500000e-05 3.000000e-06 0.000000e+00 9.999100e-01 5.773503e-01 -1.500000e+00
224 1 1.550000e-05 3.000000e-06 0.000000e+00 9.999982e-01 8.164966e-01 1.500000e+00
225 1 0.000000e+00 3.500000e-06 0.000000e+00 9.999972e-01 8.164966e-01 1.500000e+00
226 1 5.000000e-07 3.500000e-06 0.000000e+00 9.998665e-01 5.773503e-01 -1.500000e+00
227 1 1.000000e-06 3.500000e-06 0.000000e+00 9.997347e-01 5.773503e-01 1.500000e+00
228 1 1.500000e-06 3.500000e-06 0.000000e+00 9.991638e-01 5.773503e-01 -1.500000e+00
229 1 2.000000e-06 3.500000e-06 0.000000e+00 9.990085e-01 5.773503e-01 1.500000e+00
230 1 2.500000e-06 3.500000e-06 0.000000e+00 9.987238e-01 5.773503e-01 -1.500000e+00
231 1 3.000000e-06 3.500000e-06 0.000000e+00 9.987376e-01 5.773503e-01 1.500000e+00
232 1 3.500000e-06 3.500000e-06 0.000000e+00 9.987007e-01 5.773503e-01 -1.500000e+00
233 1 4.000000e-06 3.500000e-06 0.000000e+00 9.987099e-01 5.773503e-01 1.500000e+00
234 1 4.500000e-06 3.500000e-06 0.000000e+00 9.986965e-01 5.773503e-01 -1.500000e+00
235 1 5.000000e-06 3.500000e-06 0.000000e+00 9.987005e-01 5.773503e-01 1.500000e+00
236 1 5.500000e-06 3.500000e-06 0.000000e+00 9.986953e-01 5.773503e-01 -1.500000e+00
237 1 6.000000e-06 3.500000e-06 0.000000e+00 9.986968e-01 5.773503e-01 1.500000e+00
238 1 6.500000e-06 3.500000e-06 0.000000e+00 9.986947e-01 5.773503e-01 -1.500000e+00
239 1 7.000000e-06 3.500000e-06 0.000000e+00 9.986958e-01 5.773503e-01 1.500000e+00
240 1 7.500000e-06 3.500000e-06 0.000000e+00 9.986951e-01 5.773503e-01 -1.500000e+00
241 1 8.000000e-06 3.500000e-06 0.000000e+00 9.986963e-01 5.773503e-01 1.500000e+00
242 1 8.500000e-06 3.500000e-06 0.000000e+00 9.986968e-01 5.773503e-01 -1.500000e+00
243 1 9.000000e-06 3.500000e-06 0.000000e+00 9.986985e-01 5.773503e-01 1.500000e+00
244 1 9.500000e-06 3.500000e-06 0.000000e+00 9.987004e-01 5.773503e-01 -1.500000e+00
245 1 1.000000e-05 3.500000e-06 0.000000e+00 9.987034e-01 5.773503e-01 1.500000e+00
246 1 1.050000e-05 3.500000e-06 0.000000e+00 9.987086e-01 5.773503e-01 -1.500000e+00
247 1 1.100000e-05 3.500000e-06 0.000000e+00 9.987151e-01 5.773503e-01 1.500000e+00
248 1 1.150000e-05 3.500000e-06 0.000000e+00 9.987290e-01 5.773503e-01 -1.500000e+00
249 1 1.200000e-05 3.500000e-06 0.000000e+00 9.987423e-01 5.773503e-01 1.500000e+00
250 1 1.250000e-05 3.500000e-06 0.000000e+00 9.987797e-01 5.773503e-01 -1.500000e+00
251 1 1.300000e-05 3.500000e-06 0.000000e+00 9.989274e-01 5.773503e-01 1.500000e+00
252 1 1.350000e-05 3.500000e-06 0.000000e+00 9.992837e-01 5.773503e-01 -1.500000e+00
253 1 1.400000e-05 3.500000e-06 0.000000e+00 9.994717e-01 5.773503e-01 1.500000e+00
254 1 1.450000e-05 3.500000e-06 0.000000e+00 9.998550e-01 5.773503e-01 -1.500000e+00
255 1 1.500000e-05 3.500000e-06 0.000000e+00 9.999233e-01 5.773503e-01 1.500000e+00
256 1 1.550000e-05 3.500000e-06 0.000000e+00 9.999986e-01 8.164966e-01 -1.500000e+00
257 1 0.000000e+00 4.000000e-06 0.000000e+00 9.999972e-01 8.164966e-01 -1.500000e+00
258 1 5.000000e-07 4.000000e-06 0.000000e+00 9.998650e-01 5.773503e-01 1.500000e+00
259 1 1.000000e-06 4.000000e-06 0.000000e+00 9.997270e-01 5.773503e-01 -1.500000e+00
260 1 1.500000e-06 4.000000e-06 0.000000e+00 9.991505e-01 5.773503e-01 1.500000e+00
261 1 2.000000e-06 4.000000e-06 0.000000e+00 9.989714e-01 5.773503e-01 -1.500000e+00
262 1 2.500000e-06 4.000000e-06 0.000000e+00 9.987140e-01 5.773503e-01 1.500000e+00
263 1 3.000000e-06 4.000000e-06 0.000000e+00 9.987268e-01 5.773503e-01 -1.500000e+00
264 1 3.500000e-06 4.000000e-06 0.000000e+00 9.986893e-01 5.773503e-01 1.500000e+00
265 1 4.000000e-06 4.000000e-06 0.000000e+00 9.987008e-01 5.773503e-01 -1.500000e+00
266 1 4.500000e-06 4.000000e-06 0.000000e+00 9.986863e-01 5.773503e-01 1.500000e+00
267 1 5.000000e-06 4.000000e-06 0.000000e+00 9.986936e-01 5.773503e-01 -1.500000e+00
268 1 5.500000e-06 4.000000e-06 0.000000e+00 9.986874e-01 5.773503e-01 1.500000e+00
269 1 6.000000e-06 4.000000e-06 0.000000e+00 9.986907e-01 5.773503e-01 -1.500000e+00
270 1 6.500000e-06 4.000000e-06 0.000000e+00 9.986879e-01 5.773503e-01 1.500000e+00
271 1 7.000000e-06 4.000000e-06 0.000000e+00 9.986894e-01 5.773503e-01 -1.500000e+00
272 1 7.500000e-06 4.000000e-06 0.000000e+00 9.986886e-01 5.773503e-01 1.500000e+00
273 1 8.000000e-06 4.000000e-06 0.000000e+00 9.986893e-01 5.773503e-01 -1.500000e+00
274 1 8.500000e-06 4.000000e-06 0.000000e+00 9.986900e-01 5.773503e-01 1.500000e+00
275 1 9.000000e-06 4.000000e-06 0.000000e+00 9.986910e-01 5.773503e-01 -1.500000e+00
276 1 9.500000e-06 4.000000e-06 0.000000e+00 9.986937e-01 5.773503e-01 1.500000e+00
277 1 1.000000e-05 4.000000e-06 0.000000e+00 9.986965e-01 5.773503e-01 -1.500000e+00
278 1 1.050000e-05 4.000000e-06 0.000000e+00 9.987027e-01 5.773503e-01 1.500000e+00
279 1 1.100000e-05 4.000000e-06 0.000000e+00 9.987094e-01 5.773503e-01 -1.500000e+00
280 1 1.150000e-05 4.000000e-06 0.000000e+00 9.987241e-01 5.773503e-01 1.500000e+00
281 1 1.200000e-05 4.000000e-06 0.000000e+00 9.987373e-01 5.773503e-01 -1.500000e+00
282 1 1.250000e-05 4.000000e-06 0.000000e+00 9.987749e-01 5.773503e-01 1.500000e+00
283 1 1.300000e-05 4.000000e-06 0.000000e+00 9.989047e-01 5.773503e-01 -1.500000e+00
284 1 1.350000e-05 4.000000e-06 0.000000e+00 9.992661e-01 5.773503e-01 1.500000e+00
285 1 1.400000e-05 4.000000e-06 0.000000e+00 9.994576e-01 5.773503e-01 -1.500000e+00
286 1 1.450000e-05 4.000000e-06 0.000000e+00 9.998504e-01 5.773503e-01 1.500000e+00
287 1 1.500000e-05 4.000000e-06 0.000000e+00 9.999218e-01 5.773503e-01 -1.500000e+00
288 1 1.550000e-05 4.000000e-06 0.000000e+00 9.999985e-01 8.164966e-01 1.500000e+00
289 1 0.000000e+00 4.500000e-06 0.000000e+00 9.999973e-01 8.164966e-01 1.500000e+00
290 1 5.000000e-07 4.500000e-06 0.000000e+00 9.998708e-01 5.773503e-01 -1.500000e+00
291 1 1.000000e-06 4.500000e-06 0.000000e+00 9.997427e-01 5.773503e-01 1.500000e+00
292 1 1.500000e-06 4.500000e-06 0.000000e+00 9.991738e-01 5.773503e-01 -1.500000e+00
293 1 2.000000e-06 4.500000e-06 0.000000e+00 9.990091e-01 5.773503e-01 1.500000e+00
294 1 2.500000e-06 4.500000e-06 0.000000e+00 9.987185e-01 5.773503e-01 -1.500000e+00
295 1 3.000000e-06 4.500000e-06 0.000000e+00 9.987317e-01 5.773503e-01 1.500000e+00
296 1 3.500000e-06 4.500000e-06 0.000000e+00 9.986912e-01 5.773503e-01 -1.500000e+00
297 1 4.000000e-06 4.500000e-06 0.000000e+00 9.987018e-01 5.773503e-01 1.500000e+00
298 1 4.500000e-06 4.500000e-06 0.000000e+00 9.986868e-01 5.773503e-01 -1.500000e+00
299 1 5.000000e-06 4.500000e-06 0.000000e+00 9.986927e-01 5.773503e-01 1.500000e+00
300 1 5.500000e-06 4.500000e-06 0.000000e+00 9.986870e-01 5.773503e-01 -1.500000e+00
301 1 6.000000e-06 4.500000e-06 0.000000e+00 9.986893e-01 5.773503e-01 1.500000e+00
302 1 6.500000e-06 4.500000e-06 0.000000e+00 9.986873e-01 5.773503e-01 -1.500000e+00
303 1 7.000000e-06 4.500000e-06 0.000000e+00 9.986882e-01 5.773503e-01 1.500000e+00
304 1 7.500000e-06 4.500000e-06 0.000000e+00 9.986877e-01 5.773503e-01 -1.500000e+00
305 1 8.000000e-06 4.500000e-06 0.000000e+00 9.986884e-01 5.773503e-01 1.500000e+00
306 1 8.500000e-06 4.500000e-06 0.000000e+00 9.986887e-01 5.773503e-01 -1.500000e+00
307 1 9.000000e-06 4.500000e-06 0.000000e+00 9.986899e-01 5.773503e-01 1.500000e+00
308 1 9.500000e-06 4.500000e-06 0.000000e+00 9.986919e-01 5.773503e-01 -1.500000e+00
309 1 1.000000e-05 4.500000e-06 0.000000e+00 9.986952e-01 5.773503e-01 1.500000e+00
310 1 1.050000e-05 4.500000e-06 0.000000e+00 9.987010e-01 5.773503e-01 -1.500000e+00
311 1 1.100000e-05 4.500000e-06 0.000000e+00 9.987084e-01 5.773503e-01 1.500000e+00
312 1 1.150000e-05 4.500000e-06 0.000000e+00 9.987241e-01 5.773503e-01 -1.500000e+00
313 1 1.200000e-05 4.500000e-06 0.000000e+00 9.987381e-01 5.773503e-01 1.500000e+00
314 1 1.250000e-05 4.500000e-06 0.000000e+00 9.987789e-01 5.773503e-01 -1.500000e+00
315 1 1.300000e-05 4.500000e-06 0.000000e+00 9.989234e-01 5.773503e-01 1.500000e+00
316 1 1.350000e-05 4.500000e-06 0.000000e+00 9.992971e-01 5.773503e-01 -1.500000e+00
317 1 1.400000e-05 4.500000e-06 0.000000e+00 9.994822e-01 5.773503e-01 1.500000e+00
318 1 1.450000e-05 4.500000e-06 0.000000e+00 9.998614e-01 5.773503e-01 -1.500000e+00
319 1 1.500000e-05 4.500000e-06 0.000000e+00 9.999273e-01 5.773503e-01 1.500000e+00
320 1 1.550000e-05 4.500000e-06 0.000000e+00 9.999986e-01 8.164966e-01 -1.500000e+00
321 1 0.000000e+00 5.000000e-06 0.000000e+00 9.999973e-01 8.164966e-01 -1.500000e+00
322 1 5.000000e-07 5.000000e-06 0.000000e+00 9.998707e-01 5.773503e-01 1.500000e+00
323 1 1.000000e-06 5.000000e-06 0.000000e+00 9.997405e-01 5.773503e-01 -1.500000e+00
324 1 1.500000e-06 5.000000e-06 0.000000e+00 9.991699e-01 5.773503e-01 1.500000e+00
325 1 2.000000e-06 5.000000e-06 0.000000e+00 9.989920e-01 5.773503e-01 -1.500000e+00
326 1 2.500000e-06 5.000000e-06 0.000000e+00 9.987145e-01 5.773503e-01 1.500000e+00
327 1 3.000000e-06 5.000000e-06 0.000000e+00 9.987259e-01 5.773503e-01 -1.500000e+00
328 1 3.500000e-06 5.000000e-06 0.000000e+00 9.986854e-01 5.773503e-01 1.500000e+00
329 1 4.000000e-06 5.000000e-06 0.000000e+00 9.986958e-01 5.773503e-01 -1.500000e+00
330 1 4.500000e-06 5.000000e-06 0.000000e+00 9.986801e-01 5.773503e-01 1.500000e+00
331 1 5.000000e-06 5.000000e-06 0.000000e+00 9.986876e-01 5.773503e-01 -1.500000e+00
332 1 5.500000e-06 5.000000e-06 0.000000e+00 9.986815e-01 5.773503e-01 1.500000e+00
333 1 6.000000e-06 5.000000e-06 0.000000e+00 9.986852e-01 5.773503e-01 -1.500000e+00
334 1 6.500000e-06 5.000000e-06 0.000000e+00 9.986828e-01 5.773503e-01 1.500000e+00
335 1 7.000000e-06 5.000000e-06 0.000000e+00 9.986848e-01 5.773503e-01 -1.500000e+00
336 1 7.500000e-06 5.000000e-06 0.000000e+00 9.986843e-01 5.773503e-01 1.500000e+00
337 1 8.000000e-06 5.000000e-06 0.000000e+00 9.986856e-01 5.773503e-01 -1.500000e+00
338 1 8.500000e-06 5.000000e-06 0.000000e+00 9.986862e-01 5.773503e-01 1.500000e+00
339 1 9.000000e-06 5.000000e-06 0.000000e+00 9.986876e-01 5.773503e-01 -1.500000e+00
340 1 9.500000e-06 5.000000e-06 0.000000e+00 9.986898e-01 5.773503e-01 1.500000e+00
341 1 1.000000e-05 5.000000e-06 0.000000e+00 9.986931e-01 5.773503e-01 -1.500000e+00
342 1 1.050000e-05 5.000000e-06 0.000000e+00 9.986993e-01 5.773503e-01 1.500000e+00
343 1 1.100000e-05 5.000000e-06 0.000000e+00 9.987063e-01 5.773503e-01 -1.500000e+00
344 1 1.150000e-05 5.000000e-06 0.000000e+00 9.987220e-01 5.773503e-01 1.500000e+00
345 1 1.200000e-05 5.000000e-06 0.000000e+00 9.987349e-01 5.773503e-01 -1.500000e+00
346 1 1.250000e-05 5.000000e-06 0.000000e+00 9.987756e-01 5.773503e-01 1.500000e+00
347 1 1.300000e-05 5.000000e-06 0.000000e+00 9.989091e-01 5.773503e-01 -1.500000e+00
348 1 1.350000e-05 5.000000e-06 0.000000e+00 9.992858e-01 5.773503e-01 1.500000e+00
349 1 1.400000e-05 5.000000e-06 0.000000e+00 9.994785e-01 5.773503e-01 -1.500000e+00
350 1 1.450000e-05 5.000000e-06 0.000000e+00 9.998598e-01 5.773503e-01 1.500000e+00
351 1 1.500000e-05 5.000000e-06 0.000000e+00 9.999271e-01 5.773503e-01 -1.500000e+00
352 1 1.550000e-05 5.000000e-06 0.000000e+00 9.999986e-01 8.164966e-01 1.500000e+00
353 1 0.000000e+00 5.500000e-06 0.000000e+00 9.999974e-01 8.164966e-01 1.500000e+00
354 1 5.000000e-07 5.500000e-06 0.000000e+00 9.998731e-01 5.773503e-01 -1.500000e+00