ITEM: TIMESTEP
10
ITEM: NUMBER OF ATOMS
16384
ITEM: BOX BOUNDS pp pp pp
0.0 1.600000e-05
0.0 1.600000e-05
0.0 8.000000e-06
ITEM: ATOMS id type x y z crack plastic psi
1 1 0.000000e+00 0.000000e+00 0.000000e+00 9.437531e-04 8.058061e-01 -9.991455e-01
2 1 5.000000e-07 0.000000e+00 0.000000e+00 9.437540e-04 7.327937e-01 1.000854e+00
3 1 1.000000e-06 0.000000e+00 0.000000e+00 9.436754e-04 7.106831e-01 -9.991455e-01
4 1 1.500000e-06 0.000000e+00 0.000000e+00 9.360153e-04 7.027000e-01 1.000854e+00
5 1 2.000000e-06 0.000000e+00 0.000000e+00 9.360010e-04 7.026497e-01 -9.991455e-01
6 1 2.500000e-06 0.000000e+00 0.000000e+00 9.360008e-04 6.986665e-01 1.000854e+00
7 1 3.000000e-06 0.000000e+00 0.000000e+00 9.360117e-04 7.062871e-01 -9.991455e-01
8 1 3.500000e-06 0.000000e+00 0.000000e+00 9.360078e-04 7.062637e-01 1.000854e+00
9 1 4.000000e-06 0.000000e+00 0.000000e+00 9.360043e-04 7.062426e-01 -9.991455e-01
10 1 4.500000e-06 0.000000e+00 0.000000e+00 9.360181e-04 6.942827e-01 1.000854e+00
11 1 5.000000e-06 0.000000e+00 0.000000e+00 9.437490e-04 7.016814e-01 -9.991455e-01
12 1 5.500000e-06 0.000000e+00 0.000000e+00 9.437504e-04 6.928922e-01 1.000854e+00
13 1 6.000000e-06 0.000000e+00 0.000000e+00 9.360115e-04 6.927477e-01 -9.991455e-01
14 1 6.500000e-06 0.000000e+00 0.000000e+00 9.360082e-04 7.062423e-01 1.000854e+00
15 1 7.000000e-06 0.000000e+00 0.000000e+00 9.437493e-04 7.190067e-01 -9.991455e-01
16 1 7.500000e-06 0.000000e+00 0.000000e+00 9.360093e-04 7.295572e-01 1.000854e+00
17 1 8.000000e-06 0.000000e+00 0.000000e+00 9.357887e-04 7.145162e-01 -9.991455e-01
18 1 8.500000e-06 0.000000e+00 0.000000e+00 9.360097e-04 7.078976e-01 1.000854e+00
19 1 9.000000e-06 0.000000e+00 0.000000e+00 9.360318e-04 7.140004e-01 -9.991455e-01
20 1 9.500000e-06 0.000000e+00 0.000000e+00 9.360283e-04 7.008919e-01 -9.991455e-01
21 1 1.000000e-05 0.000000e+00 0.000000e+00 9.437506e-04 7.167621e-01 1.000854e+00
22 1 1.050000e-05 0.000000e+00 0.000000e+00 9.436825e-04 7.089569e-01 -9.991455e-01
23 1 1.100000e-05 0.000000e+00 0.000000e+00 9.437495e-04 7.212329e-01 1.000854e+00
24 1 1.150000e-05 0.000000e+00 0.000000e+00 9.437513e-04 7.212779e-01 -9.991455e-01
25 1 1.200000e-05 0.000000e+00 0.000000e+00 9.436785e-04 7.085703e-01 1.000854e+00
26 1 1.250000e-05 0.000000e+00 0.000000e+00 9.436782e-04 7.052620e-01 -9.991455e-01
27 1 1.300000e-05 0.000000e+00 0.000000e+00 9.437546e-04 7.115627e-01 1.000854e+00
28 1 1.350000e-05 0.000000e+00 0.000000e+00 9.436773e-04 7.120367e-01 1.000854e+00
29 1 1.400000e-05 0.000000e+00 0.000000e+00 9.360121e-04 7.130861e-01 -9.991455e-01
30 1 1.450000e-05 0.000000e+00 0.000000e+00 9.360054e-04 6.968434e-01 1.000854e+00
31 1 1.500000e-05 0.000000e+00 0.000000e+00 9.360132e-04 7.207931e-01 -9.991455e-01
32 1 1.550000e-05 0.000000e+00 0.000000e+00 9.360262e-04 8.421196e-01 1.000854e+00
33 1 0.000000e+00 5.000000e-07 0.000000e+00 9.360070e-04 6.206754e-01 1.000854e+00
34 1 5.000000e-07 5.000000e-07 0.000000e+00 9.434255e-04 5.083682e-01 -9.991455e-01
35 1 1.000000e-06 5.000000e-07 0.000000e+00 9.205131e-04 4.811326e-01 1.000854e+00
36 1 1.500000e-06 5.000000e-07 0.000000e+00 9.280148e-04 4.854090e-01 -9.991455e-01
37 1 2.000000e-06 5.000000e-07 0.000000e+00 9.280178e-04 4.848760e-01 1.000854e+00
38 1 2.500000e-06 5.000000e-07 0.000000e+00 9.282426e-04 4.896916e-01 -9.991455e-01
39 1 3.000000e-06 5.000000e-07 0.000000e+00 9.277956e-04 4.795558e-01 1.000854e+00
40 1 3.500000e-06 5.000000e-07 0.000000e+00 9.282488e-04 4.907400e-01 -9.991455e-01
41 1 4.000000e-06 5.000000e-07 0.000000e+00 9.355472e-04 4.915141e-01 1.000854e+00
42 1 4.500000e-06 5.000000e-07 0.000000e+00 9.427700e-04 4.867187e-01 -9.991455e-01
43 1 5.000000e-06 5.000000e-07 0.000000e+00 9.348664e-04 4.760233e-01 1.000854e+00
44 1 5.500000e-06 5.000000e-07 0.000000e+00 9.197390e-04 4.569005e-01 -9.991455e-01
45 1 6.000000e-06 5.000000e-07 0.000000e+00 9.348617e-04 4.740854e-01 1.000854e+00
46 1 6.500000e-06 5.000000e-07 0.000000e+00 9.436717e-04 5.038501e-01 -9.991455e-01
47 1 7.000000e-06 5.000000e-07 0.000000e+00 9.437448e-04 5.083318e-01 1.000854e+00
48 1 7.500000e-06 5.000000e-07 0.000000e+00 9.436797e-04 5.523192e-01 -9.991455e-01
49 1 8.000000e-06 5.000000e-07 0.000000e+00 9.353327e-04 5.118432e-01 1.000854e+00
50 1 8.500000e-06 5.000000e-07 0.000000e+00 9.357915e-04 4.961745e-01 -9.991455e-01
51 1 9.000000e-06 5.000000e-07 0.000000e+00 9.282659e-04 4.800480e-01 1.000854e+00
52 1 9.500000e-06 5.000000e-07 0.000000e+00 9.360117e-04 5.026413e-01 1.000854e+00
53 1 1.000000e-05 5.000000e-07 0.000000e+00 9.282601e-04 4.898055e-01 -9.991455e-01
54 1 1.050000e-05 5.000000e-07 0.000000e+00 9.359920e-04 5.024618e-01 1.000854e+00
55 1 1.100000e-05 5.000000e-07 0.000000e+00 9.436749e-04 5.060123e-01 -9.991455e-01
56 1 1.150000e-05 5.000000e-07 0.000000e+00 9.432134e-04 4.947021e-01 1.000854e+00
57 1 1.200000e-05 5.000000e-07 0.000000e+00 9.205078e-04 4.823748e-01 -9.991455e-01
58 1 1.250000e-05 5.000000e-07 0.000000e+00 9.435054e-04 4.985306e-01 1.000854e+00
59 1 1.300000e-05 5.000000e-07 0.000000e+00 9.435256e-04 5.072551e-01 -9.991455e-01
60 1 1.350000e-05 5.000000e-07 0.000000e+00 9.434306e-04 4.825914e-01 -9.991455e-01
61 1 1.400000e-05 5.000000e-07 0.000000e+00 9.357709e-04 4.921919e-01 1.000854e+00
62 1 1.450000e-05 5.000000e-07 0.000000e+00 9.434478e-04 5.211346e-01 -9.991455e-01
63 1 1.500000e-05 5.000000e-07 0.000000e+00 9.437467e-04 5.268640e-01 1.000854e+00
64 1 1.550000e-05 5.000000e-07 0.000000e+00 9.360281e-04 6.764830e-01 -9.991455e-01
65 1 0.000000e+00 1.000000e-06 0.000000e+00 9.357728e-04 6.480399e-01 -9.991455e-01
66 1 5.000000e-07 1.000000e-06 0.000000e+00 9.359891e-04 5.240917e-01 1.000854e+00
67 1 1.000000e-06 1.000000e-06 0.000000e+00 9.277942e-04 4.852438e-01 -9.991455e-01
68 1 1.500000e-06 1.000000e-06 0.000000e+00 9.205079e-04 4.811344e-01 1.000854e+00
69 1 2.000000e-06 1.000000e-06 0.000000e+00 9.279492e-04 4.792091e-01 -9.991455e-01
70 1 2.500000e-06 1.000000e-06 0.000000e+00 9.277871e-04 4.795399e-01 1.000854e+00
71 1 3.000000e-06 1.000000e-06 0.000000e+00 9.127497e-04 4.703778e-01 -9.991455e-01
72 1 3.500000e-06 1.000000e-06 0.000000e+00 9.355453e-04 4.915361e-01 1.000854e+00
73 1 4.000000e-06 1.000000e-06 0.000000e+00 9.360027e-04 5.075140e-01 -9.991455e-01
74 1 4.500000e-06 1.000000e-06 0.000000e+00 9.437445e-04 5.242841e-01 1.000854e+00
75 1 5.000000e-06 1.000000e-06 0.000000e+00 9.436711e-04 5.201382e-01 -9.991455e-01
76 1 5.500000e-06 1.000000e-06 0.000000e+00 9.357717e-04 5.071358e-01 1.000854e+00
77 1 6.000000e-06 1.000000e-06 0.000000e+00 9.359945e-04 5.201602e-01 -9.991455e-01
78 1 6.500000e-06 1.000000e-06 0.000000e+00 9.357152e-04 4.811800e-01 1.000854e+00
79 1 7.000000e-06 1.000000e-06 0.000000e+00 9.203795e-04 4.715504e-01 -9.991455e-01
80 1 7.500000e-06 1.000000e-06 0.000000e+00 9.204921e-04 5.185430e-01 1.000854e+00
81 1 8.000000e-06 1.000000e-06 0.000000e+00 9.354639e-04 4.940832e-01 -9.991455e-01
82 1 8.500000e-06 1.000000e-06 0.000000e+00 9.359815e-04 4.954174e-01 1.000854e+00
83 1 9.000000e-06 1.000000e-06 0.000000e+00 9.360041e-04 5.250938e-01 -9.991455e-01
84 1 9.500000e-06 1.000000e-06 0.000000e+00 9.437386e-04 5.253077e-01 1.000854e+00
85 1 1.000000e-05 1.000000e-06 0.000000e+00 9.280246e-04 4.854472e-01 1.000854e+00
86 1 1.050000e-05 1.000000e-06 0.000000e+00 9.360049e-04 4.990918e-01 -9.991455e-01
87 1 1.100000e-05 1.000000e-06 0.000000e+00 9.359948e-04 5.005135e-01 1.000854e+00
88 1 1.150000e-05 1.000000e-06 0.000000e+00 9.357658e-04 4.968501e-01 -9.991455e-01
89 1 1.200000e-05 1.000000e-06 0.000000e+00 9.359170e-04 4.952913e-01 1.000854e+00
90 1 1.250000e-05 1.000000e-06 0.000000e+00 9.435161e-04 5.136522e-01 -9.991455e-01
91 1 1.300000e-05 1.000000e-06 0.000000e+00 9.432775e-04 4.857478e-01 -9.991455e-01
92 1 1.350000e-05 1.000000e-06 0.000000e+00 9.357694e-04 4.995056e-01 1.000854e+00
93 1 1.400000e-05 1.000000e-06 0.000000e+00 9.359760e-04 4.999588e-01 -9.991455e-01
94 1 1.450000e-05 1.000000e-06 0.000000e+00 9.437252e-04 5.085863e-01 1.000854e+00
95 1 1.500000e-05 1.000000e-06 0.000000e+00 9.436685e-04 5.260182e-01 -9.991455e-01
96 1 1.550000e-05 1.000000e-06 0.000000e+00 9.437552e-04 6.930227e-01 1.000854e+00
97 1 0.000000e+00 1.500000e-06 0.000000e+00 9.357793e-04 6.720743e-01 1.000854e+00
98 1 5.000000e-07 1.500000e-06 0.000000e+00 9.359941e-04 5.192494e-01 -9.991455e-01
99 1 1.000000e-06 1.500000e-06 0.000000e+00 9.359595e-04 4.940522e-01 1.000854e+00
100 1 1.500000e-06 1.500000e-06 0.000000e+00 9.436651e-04 5.072901e-01 -9.991455e-01
101 1 2.000000e-06 1.500000e-06 0.000000e+00 9.437373e-04 5.083939e-01 1.000854e+00
102 1 2.500000e-06 1.500000e-06 0.000000e+00 9.436576e-04 5.038598e-01 -9.991455e-01
103 1 3.000000e-06 1.500000e-06 0.000000e+00 9.359866e-04 4.993890e-01 1.000854e+00
104 1 3.500000e-06 1.500000e-06 0.000000e+00 9.359822e-04 4.993816e-01 -9.991455e-01
105 1 4.000000e-06 1.500000e-06 0.000000e+00 9.360100e-04 5.127792e-01 1.000854e+00
106 1 4.500000e-06 1.500000e-06 0.000000e+00 9.436484e-04 5.178383e-01 -9.991455e-01
107 1 5.000000e-06 1.500000e-06 0.000000e+00 9.436643e-04 5.176838e-01 1.000854e+00
108 1 5.500000e-06 1.500000e-06 0.000000e+00 9.360063e-04 5.145676e-01 -9.991455e-01
109 1 6.000000e-06 1.500000e-06 0.000000e+00 9.359118e-04 4.970127e-01 1.000854e+00
110 1 6.500000e-06 1.500000e-06 0.000000e+00 9.357603e-04 5.089731e-01 -9.991455e-01
111 1 7.000000e-06 1.500000e-06 0.000000e+00 9.357677e-04 5.104145e-01 1.000854e+00
112 1 7.500000e-06 1.500000e-06 0.000000e+00 9.434294e-04 5.052385e-01 -9.991455e-01
113 1 8.000000e-06 1.500000e-06 0.000000e+00 9.437196e-04 5.034153e-01 1.000854e+00
114 1 8.500000e-06 1.500000e-06 0.000000e+00 9.434156e-04 4.987855e-01 -9.991455e-01
115 1 9.000000e-06 1.500000e-06 0.000000e+00 9.357928e-04 5.184821e-01 1.000854e+00
116 1 9.500000e-06 1.500000e-06 0.000000e+00 9.432037e-04 5.193155e-01 -9.991455e-01
117 1 1.000000e-05 1.500000e-06 0.000000e+00 9.280148e-04 5.050056e-01 1.000854e+00
118 1 1.050000e-05 1.500000e-06 0.000000e+00 9.357672e-04 5.033410e-01 -9.991455e-01
119 1 1.100000e-05 1.500000e-06 0.000000e+00 9.359913e-04 5.061987e-01 1.000854e+00
120 1 1.150000e-05 1.500000e-06 0.000000e+00 9.280187e-04 4.988587e-01 -9.991455e-01
121 1 1.200000e-05 1.500000e-06 0.000000e+00 9.436685e-04 5.283436e-01 1.000854e+00
122 1 1.250000e-05 1.500000e-06 0.000000e+00 9.437420e-04 5.416965e-01 -9.991455e-01
123 1 1.300000e-05 1.500000e-06 0.000000e+00 9.437417e-04 5.404686e-01 1.000854e+00
124 1 1.350000e-05 1.500000e-06 0.000000e+00 9.436587e-04 5.318374e-01 -9.991455e-01
125 1 1.400000e-05 1.500000e-06 0.000000e+00 9.359875e-04 5.241848e-01 1.000854e+00
126 1 1.450000e-05 1.500000e-06 0.000000e+00 9.437420e-04 5.334726e-01 -9.991455e-01
127 1 1.500000e-05 1.500000e-06 0.000000e+00 9.359955e-04 5.139399e-01 1.000854e+00
128 1 1.550000e-05 1.500000e-06 0.000000e+00 9.437513e-04 7.017122e-01 -9.991455e-01
129 1 0.000000e+00 2.000000e-06 0.000000e+00 9.357740e-04 6.843679e-01 -9.991455e-01
130 1 5.000000e-07 2.000000e-06 0.000000e+00 9.359804e-04 5.024242e-01 1.000854e+00
131 1 1.000000e-06 2.000000e-06 0.000000e+00 9.359928e-04 5.107055e-01 -9.991455e-01
132 1 1.500000e-06 2.000000e-06 0.000000e+00 9.434384e-04 5.060282e-01 1.000854e+00
133 1 2.000000e-06 2.000000e-06 0.000000e+00 9.434126e-04 4.931505e-01 -9.991455e-01
134 1 2.500000e-06 2.000000e-06 0.000000e+00 9.359820e-04 5.015317e-01 1.000854e+00
135 1 3.000000e-06 2.000000e-06 0.000000e+00 9.437276e-04 5.093606e-01 -9.991455e-01
136 1 3.500000e-06 2.000000e-06 0.000000e+00 9.359941e-04 4.994147e-01 1.000854e+00
137 1 4.000000e-06 2.000000e-06 0.000000e+00 9.436606e-04 5.149728e-01 -9.991455e-01
138 1 4.500000e-06 2.000000e-06 0.000000e+00 9.432758e-04 5.143266e-01 1.000854e+00
139 1 5.000000e-06 2.000000e-06 0.000000e+00 9.437369e-04 5.207540e-01 -9.991455e-01
140 1 5.500000e-06 2.000000e-06 0.000000e+00 9.357652e-04 4.869717e-01 1.000854e+00
141 1 6.000000e-06 2.000000e-06 0.000000e+00 9.437350e-04 5.116525e-01 -9.991455e-01
142 1 6.500000e-06 2.000000e-06 0.000000e+00 9.435074e-04 4.919573e-01 1.000854e+00
143 1 7.000000e-06 2.000000e-06 0.000000e+00 9.357719e-04 4.926668e-01 -9.991455e-01
144 1 7.500000e-06 2.000000e-06 0.000000e+00 9.359885e-04 4.975523e-01 1.000854e+00
145 1 8.000000e-06 2.000000e-06 0.000000e+00 9.434111e-04 4.991243e-01 -9.991455e-01
146 1 8.500000e-06 2.000000e-06 0.000000e+00 9.437244e-04 5.077462e-01 1.000854e+00
147 1 9.000000e-06 2.000000e-06 0.000000e+00 9.434201e-04 5.032891e-01 -9.991455e-01
148 1 9.500000e-06 2.000000e-06 0.000000e+00 9.282331e-04 4.881217e-01 1.000854e+00
149 1 1.000000e-05 2.000000e-06 0.000000e+00 9.434316e-04 5.297483e-01 -9.991455e-01
150 1 1.050000e-05 2.000000e-06 0.000000e+00 9.359815e-04 5.024813e-01 1.000854e+00
151 1 1.100000e-05 2.000000e-06 0.000000e+00 9.359793e-04 5.024962e-01 -9.991455e-01
152 1 1.150000e-05 2.000000e-06 0.000000e+00 9.357663e-04 5.251821e-01 1.000854e+00
153 1 1.200000e-05 2.000000e-06 0.000000e+00 9.360015e-04 5.333371e-01 -9.991455e-01
154 1 1.250000e-05 2.000000e-06 0.000000e+00 9.436688e-04 5.299440e-01 1.000854e+00
155 1 1.300000e-05 2.000000e-06 0.000000e+00 9.359918e-04 5.010892e-01 -9.991455e-01
156 1 1.350000e-05 2.000000e-06 0.000000e+00 9.436542e-04 5.072532e-01 1.000854e+00
157 1 1.400000e-05 2.000000e-06 0.000000e+00 9.436533e-04 5.069908e-01 -9.991455e-01
158 1 1.450000e-05 2.000000e-06 0.000000e+00 9.434313e-04 5.014503e-01 1.000854e+00
159 1 1.500000e-05 2.000000e-06 0.000000e+00 9.359841e-04 5.011128e-01 -9.991455e-01
160 1 1.550000e-05 2.000000e-06 0.000000e+00 9.436789e-04 6.995581e-01 1.000854e+00
161 1 0.000000e+00 2.500000e-06 0.000000e+00 9.357802e-04 6.949284e-01 1.000854e+00
162 1 5.000000e-07 2.500000e-06 0.000000e+00 9.360134e-04 5.142312e-01 -9.991455e-01
163 1 1.000000e-06 2.500000e-06 0.000000e+00 9.436671e-04 5.129300e-01 1.000854e+00
164 1 1.500000e-06 2.500000e-06 0.000000e+00 9.437344e-04 5.134282e-01 -9.991455e-01
165 1 2.000000e-06 2.500000e-06 0.000000e+00 9.435028e-04 5.040879e-01 1.000854e+00
166 1 2.500000e-06 2.500000e-06 0.000000e+00 9.282399e-04 4.908434e-01 -9.991455e-01
167 1 3.000000e-06 2.500000e-06 0.000000e+00 9.436517e-04 5.024170e-01 1.000854e+00
168 1 3.500000e-06 2.500000e-06 0.000000e+00 9.360029e-04 5.004335e-01 -9.991455e-01
169 1 4.000000e-06 2.500000e-06 0.000000e+00 9.359930e-04 5.091180e-01 1.000854e+00
170 1 4.500000e-06 2.500000e-06 0.000000e+00 9.434249e-04 5.079244e-01 -9.991455e-01
171 1 5.000000e-06 2.500000e-06 0.000000e+00 9.436467e-04 5.117279e-01 1.000854e+00
172 1 5.500000e-06 2.500000e-06 0.000000e+00 9.357795e-04 5.168515e-01 -9.991455e-01
173 1 6.000000e-06 2.500000e-06 0.000000e+00 9.437239e-04 5.146195e-01 1.000854e+00
174 1 6.500000e-06 2.500000e-06 0.000000e+00 9.435096e-04 5.153730e-01 -9.991455e-01
175 1 7.000000e-06 2.500000e-06 0.000000e+00 9.432115e-04 5.094961e-01 1.000854e+00
176 1 7.500000e-06 2.500000e-06 0.000000e+00 9.359933e-04 5.183824e-01 -9.991455e-01
177 1 8.000000e-06 2.500000e-06 0.000000e+00 9.359880e-04 5.204670e-01 1.000854e+00
178 1 8.500000e-06 2.500000e-06 0.000000e+00 9.359832e-04 5.228580e-01 -9.991455e-01
179 1 9.000000e-06 2.500000e-06 0.000000e+00 9.355274e-04 5.135249e-01 1.000854e+00
180 1 9.500000e-06 2.500000e-06 0.000000e+00 9.431945e-04 5.240887e-01 -9.991455e-01
181 1 1.000000e-05 2.500000e-06 0.000000e+00 9.350801e-04 5.040429e-01 1.000854e+00
182 1 1.050000e-05 2.500000e-06 0.000000e+00 9.357526e-04 5.262073e-01 -9.991455e-01
183 1 1.100000e-05 2.500000e-06 0.000000e+00 9.357645e-04 5.211478e-01 1.000854e+00
184 1 1.150000e-05 2.500000e-06 0.000000e+00 9.359840e-04 5.227334e-01 -9.991455e-01
185 1 1.200000e-05 2.500000e-06 0.000000e+00 9.360034e-04 5.494540e-01 1.000854e+00
186 1 1.250000e-05 2.500000e-06 0.000000e+00 9.359953e-04 5.258842e-01 -9.991455e-01
187 1 1.300000e-05 2.500000e-06 0.000000e+00 9.359142e-04 5.371222e-01 1.000854e+00
188 1 1.350000e-05 2.500000e-06 0.000000e+00 9.437322e-04 5.263707e-01 -9.991455e-01
189 1 1.400000e-05 2.500000e-06 0.000000e+00 9.436535e-04 5.229825e-01 1.000854e+00
190 1 1.450000e-05 2.500000e-06 0.000000e+00 9.357653e-04 5.137961e-01 -9.991455e-01
191 1 1.500000e-05 2.500000e-06 0.000000e+00 9.359839e-04 5.193042e-01 1.000854e+00
192 1 1.550000e-05 2.500000e-06 0.000000e+00 9.434437e-04 6.934679e-01 -9.991455e-01
193 1 0.000000e+00 3.000000e-06 0.000000e+00 9.360032e-04 7.135193e-01 -9.991455e-01
194 1 5.000000e-07 3.000000e-06 0.000000e+00 9.357783e-04 5.004618e-01 1.000854e+00
195 1 1.000000e-06 3.000000e-06 0.000000e+00 9.359967e-04 5.051439e-01 -9.991455e-01
196 1 1.500000e-06 3.000000e-06 0.000000e+00 9.436690e-04 5.073197e-01 1.000854e+00
197 1 2.000000e-06 3.000000e-06 0.000000e+00 9.355363e-04 4.902259e-01 -9.991455e-01
198 1 2.500000e-06 3.000000e-06 0.000000e+00 9.356840e-04 4.902833e-01 1.000854e+00
199 1 3.000000e-06 3.000000e-06 0.000000e+00 9.359917e-04 5.017323e-01 -9.991455e-01
200 1 3.500000e-06 3.000000e-06 0.000000e+00 9.436676e-04 5.048519e-01 1.000854e+00
201 1 4.000000e-06 3.000000e-06 0.000000e+00 9.360055e-04 4.994114e-01 -9.991455e-01
202 1 4.500000e-06 3.000000e-06 0.000000e+00 9.360024e-04 5.091328e-01 1.000854e+00
203 1 5.000000e-06 3.000000e-06 0.000000e+00 9.437457e-04 5.255988e-01 -9.991455e-01
204 1 5.500000e-06 3.000000e-06 0.000000e+00 9.360114e-04 5.175592e-01 1.000854e+00
205 1 6.000000e-06 3.000000e-06 0.000000e+00 9.359932e-04 5.159761e-01 -9.991455e-01
206 1 6.500000e-06 3.000000e-06 0.000000e+00 9.436601e-04 5.204201e-01 1.000854e+00
207 1 7.000000e-06 3.000000e-06 0.000000e+00 9.437441e-04 5.293940e-01 -9.991455e-01
208 1 7.500000e-06 3.000000e-06 0.000000e+00 9.353349e-04 5.019257e-01 1.000854e+00
209 1 8.000000e-06 3.000000e-06 0.000000e+00 9.198307e-04 4.838695e-01 -9.991455e-01
210 1 8.500000e-06 3.000000e-06 0.000000e+00 9.346283e-04 4.879020e-01 1.000854e+00
211 1 9.000000e-06 3.000000e-06 0.000000e+00 9.347869e-04 4.875456e-01 -9.991455e-01
212 1 9.500000e-06 3.000000e-06 0.000000e+00 9.353086e-04 5.110579e-01 1.000854e+00
213 1 1.000000e-05 3.000000e-06 0.000000e+00 9.198237e-04 4.876008e-01 -9.991455e-01
214 1 1.050000e-05 3.000000e-06 0.000000e+00 9.355091e-04 5.046139e-01 1.000854e+00
215 1 1.100000e-05 3.000000e-06 0.000000e+00 9.359928e-04 5.377596e-01 -9.991455e-01
216 1 1.150000e-05 3.000000e-06 0.000000e+00 9.437331e-04 5.435728e-01 1.000854e+00
217 1 1.200000e-05 3.000000e-06 0.000000e+00 9.359558e-04 5.097833e-01 -9.991455e-01
218 1 1.250000e-05 3.000000e-06 0.000000e+00 9.357468e-04 5.162930e-01 1.000854e+00
219 1 1.300000e-05 3.000000e-06 0.000000e+00 9.359887e-04 5.252305e-01 -9.991455e-01
220 1 1.350000e-05 3.000000e-06 0.000000e+00 9.434380e-04 5.229167e-01 1.000854e+00
221 1 1.400000e-05 3.000000e-06 0.000000e+00 9.357817e-04 5.190154e-01 -9.991455e-01
222 1 1.450000e-05 3.000000e-06 0.000000e+00 9.359999e-04 5.229558e-01 1.000854e+00
223 1 1.500000e-05 3.000000e-06 0.000000e+00 9.436725e-04 5.210476e-01 -9.991455e-01
224 1 1.550000e-05 3.000000e-06 0.000000e+00 9.437520e-04 7.269542e-01 1.000854e+00
225 1 0.000000e+00 3.500000e-06 0.000000e+00 9.360141e-04 7.062421e-01 1.000854e+00
226 1 5.000000e-07 3.500000e-06 0.000000e+00 9.359957e-04 4.993906e-01 -9.991455e-01
227 1 1.000000e-06 3.500000e-06 0.000000e+00 9.359894e-04 4.993689e-01 1.000854e+00
228 1 1.500000e-06 3.500000e-06 0.000000e+00 9.359878e-04 5.004053e-01 -9.991455e-01
229 1 2.000000e-06 3.500000e-06 0.000000e+00 9.357666e-04 4.950483e-01 1.000854e+00
230 1 2.500000e-06 3.500000e-06 0.000000e+00 9.432140e-04 4.937060e-01 -9.991455e-01
231 1 3.000000e-06 3.500000e-06 0.000000e+00 9.430618e-04 4.959318e-01 1.000854e+00
232 1 3.500000e-06 3.500000e-06 0.000000e+00 9.430606e-04 4.963122e-01 -9.991455e-01
233 1 4.000000e-06 3.500000e-06 0.000000e+00 9.353269e-04 4.893918e-01 1.000854e+00
234 1 4.500000e-06 3.500000e-06 0.000000e+00 9.344147e-04 4.614033e-01 -9.991455e-01
235 1 5.000000e-06 3.500000e-06 0.000000e+00 9.353347e-04 4.870520e-01 1.000854e+00
236 1 5.500000e-06 3.500000e-06 0.000000e+00 9.437470e-04 5.147383e-01 -9.991455e-01
237 1 6.000000e-06 3.500000e-06 0.000000e+00 9.359970e-04 5.004224e-01 1.000854e+00
238 1 6.500000e-06 3.500000e-06 0.000000e+00 9.360124e-04 5.004768e-01 -9.991455e-01
239 1 7.000000e-06 3.500000e-06 0.000000e+00 9.359929e-04 5.004162e-01 1.000854e+00
240 1 7.500000e-06 3.500000e-06 0.000000e+00 9.282381e-04 4.878257e-01 -9.991455e-01
241 1 8.000000e-06 3.500000e-06 0.000000e+00 9.434418e-04 5.016066e-01 1.000854e+00
242 1 8.500000e-06 3.500000e-06 0.000000e+00 9.356822e-04 4.857937e-01 -9.991455e-01
243 1 9.000000e-06 3.500000e-06 0.000000e+00 9.437406e-04 5.082832e-01 1.000854e+00
244 1 9.500000e-06 3.500000e-06 0.000000e+00 9.356973e-04 4.898878e-01 -9.991455e-01
245 1 1.000000e-05 3.500000e-06 0.000000e+00 9.280279e-04 4.854575e-01 1.000854e+00
246 1 1.050000e-05 3.500000e-06 0.000000e+00 9.127728e-04 4.704627e-01 -9.991455e-01
247 1 1.100000e-05 3.500000e-06 0.000000e+00 9.355542e-04 4.968919e-01 1.000854e+00
248 1 1.150000e-05 3.500000e-06 0.000000e+00 9.437466e-04 5.165210e-01 -9.991455e-01
249 1 1.200000e-05 3.500000e-06 0.000000e+00 9.359949e-04 4.993781e-01 1.000854e+00
250 1 1.250000e-05 3.500000e-06 0.000000e+00 9.436699e-04 5.038630e-01 -9.991455e-01
251 1 1.300000e-05 3.500000e-06 0.000000e+00 9.359974e-04 5.034990e-01 1.000854e+00
252 1 1.350000e-05 3.500000e-06 0.000000e+00 9.357738e-04 4.975984e-01 -9.991455e-01
253 1 1.400000e-05 3.500000e-06 0.000000e+00 9.355478e-04 4.883266e-01 1.000854e+00
254 1 1.450000e-05 3.500000e-06 0.000000e+00 9.282560e-04 4.897743e-01 -9.991455e-01
255 1 1.500000e-05 3.500000e-06 0.000000e+00 9.282483e-04 4.872397e-01 1.000854e+00
256 1 1.550000e-05 3.500000e-06 0.000000e+00 9.436874e-04 7.052780e-01 -9.991455e-01
257 1 0.000000e+00 4.000000e-06 0.000000e+00 9.360079e-04 7.077966e-01 -9.991455e-01
258 1 5.000000e-07 4.000000e-06 0.000000e+00 9.360029e-04 5.004517e-01 1.000854e+00
259 1 1.000000e-06 4.000000e-06 0.000000e+00 9.359988e-04 5.004295e-01 -9.991455e-01
260 1 1.500000e-06 4.000000e-06 0.000000e+00 9.359978e-04 5.025029e-01 1.000854e+00
261 1 2.000000e-06 4.000000e-06 0.000000e+00 9.359790e-04 4.997564e-01 -9.991455e-01
262 1 2.500000e-06 4.000000e-06 0.000000e+00 9.357861e-04 5.015877e-01 1.000854e+00
263 1 3.000000e-06 4.000000e-06 0.000000e+00 9.436644e-04 5.130396e-01 -9.991455e-01
264 1 3.500000e-06 4.000000e-06 0.000000e+00 9.359842e-04 5.156093e-01 1.000854e+00
265 1 4.000000e-06 4.000000e-06 0.000000e+00 9.359870e-04 5.085385e-01 -9.991455e-01
266 1 4.500000e-06 4.000000e-06 0.000000e+00 9.437411e-04 5.277382e-01 1.000854e+00
267 1 5.000000e-06 4.000000e-06 0.000000e+00 9.360077e-04 5.213624e-01 -9.991455e-01
268 1 5.500000e-06 4.000000e-06 0.000000e+00 9.360003e-04 5.144462e-01 1.000854e+00
269 1 6.000000e-06 4.000000e-06 0.000000e+00 9.437420e-04 5.167570e-01 -9.991455e-01
270 1 6.500000e-06 4.000000e-06 0.000000e+00 9.359951e-04 4.994007e-01 1.000854e+00
271 1 7.000000e-06 4.000000e-06 0.000000e+00 9.437341e-04 5.105024e-01 -9.991455e-01
272 1 7.500000e-06 4.000000e-06 0.000000e+00 9.437332e-04 5.128395e-01 1.000854e+00
273 1 8.000000e-06 4.000000e-06 0.000000e+00 9.437316e-04 5.095054e-01 -9.991455e-01
274 1 8.500000e-06 4.000000e-06 0.000000e+00 9.434375e-04 5.013407e-01 1.000854e+00
275 1 9.000000e-06 4.000000e-06 0.000000e+00 9.436589e-04 5.048515e-01 -9.991455e-01
276 1 9.500000e-06 4.000000e-06 0.000000e+00 9.360006e-04 4.994305e-01 1.000854e+00
277 1 1.000000e-05 4.000000e-06 0.000000e+00 9.359972e-04 4.994136e-01 -9.991455e-01
278 1 1.050000e-05 4.000000e-06 0.000000e+00 9.359973e-04 4.980368e-01 1.000854e+00
279 1 1.100000e-05 4.000000e-06 0.000000e+00 9.357641e-04 4.961894e-01 -9.991455e-01
280 1 1.150000e-05 4.000000e-06 0.000000e+00 9.359921e-04 5.013269e-01 1.000854e+00
281 1 1.200000e-05 4.000000e-06 0.000000e+00 9.437351e-04 5.094608e-01 -9.991455e-01
282 1 1.250000e-05 4.000000e-06 0.000000e+00 9.437385e-04 5.083609e-01 1.000854e+00
283 1 1.300000e-05 4.000000e-06 0.000000e+00 9.436666e-04 5.060217e-01 -9.991455e-01
284 1 1.350000e-05 4.000000e-06 0.000000e+00 9.360025e-04 5.006784e-01 1.000854e+00
285 1 1.400000e-05 4.000000e-06 0.000000e+00 9.359932e-04 5.042173e-01 -9.991455e-01
286 1 1.450000e-05 4.000000e-06 0.000000e+00 9.360087e-04 5.028378e-01 1.000854e+00
287 1 1.500000e-05 4.000000e-06 0.000000e+00 9.360006e-04 5.017166e-01 -9.991455e-01
288 1 1.550000e-05 4.000000e-06 0.000000e+00 9.436842e-04 7.094933e-01 1.000854e+00
289 1 0.000000e+00 4.500000e-06 0.000000e+00 9.359993e-04 7.022247e-01 1.000854e+00
290 1 5.000000e-07 4.500000e-06 0.000000e+00 9.359919e-04 5.005293e-01 -9.991455e-01
291 1 1.000000e-06 4.500000e-06 0.000000e+00 9.359838e-04 5.005058e-01 1.000854e+00
292 1 1.500000e-06 4.500000e-06 0.000000e+00 9.359894e-04 5.005252e-01 -9.991455e-01
293 1 2.000000e-06 4.500000e-06 0.000000e+00 9.435083e-04 5.030255e-01 1.000854e+00
294 1 2.500000e-06 4.500000e-06 0.000000e+00 9.357652e-04 4.973995e-01 -9.991455e-01
295 1 3.000000e-06 4.500000e-06 0.000000e+00 9.437404e-04 5.208775e-01 1.000854e+00
296 1 3.500000e-06 4.500000e-06 0.000000e+00 9.360034e-04 5.105351e-01 -9.991455e-01
297 1 4.000000e-06 4.500000e-06 0.000000e+00 9.436643e-04 5.088519e-01 1.000854e+00
298 1 4.500000e-06 4.500000e-06 0.000000e+00 9.357810e-04 4.882358e-01 -9.991455e-01
299 1 5.000000e-06 4.500000e-06 0.000000e+00 9.437361e-04 5.091772e-01 1.000854e+00
300 1 5.500000e-06 4.500000e-06 0.000000e+00 9.359981e-04 5.057703e-01 -9.991455e-01
301 1 6.000000e-06 4.500000e-06 0.000000e+00 9.357578e-04 4.979935e-01 1.000854e+00
302 1 6.500000e-06 4.500000e-06 0.000000e+00 9.359983e-04 5.015640e-01 -9.991455e-01
303 1 7.000000e-06 4.500000e-06 0.000000e+00 9.359844e-04 5.003974e-01 1.000854e+00
304 1 7.500000e-06 4.500000e-06 0.000000e+00 9.359914e-04 5.035063e-01 -9.991455e-01
305 1 8.000000e-06 4.500000e-06 0.000000e+00 9.436660e-04 5.081962e-01 1.000854e+00
306 1 8.500000e-06 4.500000e-06 0.000000e+00 9.436708e-04 5.069836e-01 -9.991455e-01
307 1 9.000000e-06 4.500000e-06 0.000000e+00 9.359853e-04 4.993671e-01 1.000854e+00
308 1 9.500000e-06 4.500000e-06 0.000000e+00 9.436653e-04 5.038605e-01 -9.991455e-01
309 1 1.000000e-05 4.500000e-06 0.000000e+00 9.357715e-04 4.962140e-01 1.000854e+00
310 1 1.050000e-05 4.500000e-06 0.000000e+00 9.359941e-04 5.035118e-01 -9.991455e-01
311 1 1.100000e-05 4.500000e-06 0.000000e+00 9.359188e-04 4.953300e-01 1.000854e+00
312 1 1.150000e-05 4.500000e-06 0.000000e+00 9.359828e-04 4.979866e-01 -9.991455e-01
313 1 1.200000e-05 4.500000e-06 0.000000e+00 9.359994e-04 5.004455e-01 1.000854e+00
314 1 1.250000e-05 4.500000e-06 0.000000e+00 9.436695e-04 5.069637e-01 -9.991455e-01
315 1 1.300000e-05 4.500000e-06 0.000000e+00 9.436539e-04 5.042155e-01 1.000854e+00
316 1 1.350000e-05 4.500000e-06 0.000000e+00 9.357793e-04 4.980478e-01 -9.991455e-01
317 1 1.400000e-05 4.500000e-06 0.000000e+00 9.282534e-04 4.896350e-01 1.000854e+00
318 1 1.450000e-05 4.500000e-06 0.000000e+00 9.357712e-04 4.968643e-01 -9.991455e-01
319 1 1.500000e-05 4.500000e-06 0.000000e+00 9.436705e-04 5.076421e-01 1.000854e+00
320 1 1.550000e-05 4.500000e-06 0.000000e+00 9.437543e-04 7.148722e-01 -9.991455e-01
321 1 0.000000e+00 5.000000e-06 0.000000e+00 9.360088e-04 7.078067e-01 -9.991455e-01
322 1 5.000000e-07 5.000000e-06 0.000000e+00 9.359914e-04 5.004055e-01 1.000854e+00
323 1 1.000000e-06 5.000000e-06 0.000000e+00 9.359958e-04 5.004249e-01 -9.991455e-01
324 1 1.500000e-06 5.000000e-06 0.000000e+00 9.359936e-04 4.980486e-01 1.000854e+00
325 1 2.000000e-06 5.000000e-06 0.000000e+00 9.359858e-04 4.985190e-01 -9.991455e-01
326 1 2.500000e-06 5.000000e-06 0.000000e+00 9.359872e-04 4.994574e-01 1.000854e+00
327 1 3.000000e-06 5.000000e-06 0.000000e+00 9.360042e-04 5.092823e-01 -9.991455e-01
328 1 3.500000e-06 5.000000e-06 0.000000e+00 9.436695e-04 5.149759e-01 1.000854e+00
329 1 4.000000e-06 5.000000e-06 0.000000e+00 9.437446e-04 5.156616e-01 -9.991455e-01
330 1 4.500000e-06 5.000000e-06 0.000000e+00 9.359235e-04 4.814813e-01 1.000854e+00
331 1 5.000000e-06 5.000000e-06 0.000000e+00 9.357808e-04 4.960561e-01 -9.991455e-01
332 1 5.500000e-06 5.000000e-06 0.000000e+00 9.434446e-04 5.083044e-01 1.000854e+00
333 1 6.000000e-06 5.000000e-06 0.000000e+00 9.357717e-04 5.021591e-01 -9.991455e-01
334 1 6.500000e-06 5.000000e-06 0.000000e+00 9.359920e-04 5.004213e-01 1.000854e+00
335 1 7.000000e-06 5.000000e-06 0.000000e+00 9.359998e-04 4.994252e-01 -9.991455e-01
336 1 7.500000e-06 5.000000e-06 0.000000e+00 9.360029e-04 5.004609e-01 1.000854e+00
337 1 8.000000e-06 5.000000e-06 0.000000e+00 9.436687e-04 5.060415e-01 -9.991455e-01
338 1 8.500000e-06 5.000000e-06 0.000000e+00 9.437353e-04 5.084058e-01 1.000854e+00
339 1 9.000000e-06 5.000000e-06 0.000000e+00 9.359955e-04 4.994106e-01 -9.991455e-01
340 1 9.500000e-06 5.000000e-06 0.000000e+00 9.437320e-04 5.083348e-01 1.000854e+00
341 1 1.000000e-05 5.000000e-06 0.000000e+00 9.436579e-04 5.059689e-01 -9.991455e-01
342 1 1.050000e-05 5.000000e-06 0.000000e+00 9.436649e-04 5.070657e-01 1.000854e+00
343 1 1.100000e-05 5.000000e-06 0.000000e+00 9.437359e-04 5.094736e-01 -9.991455e-01
344 1 1.150000e-05 5.000000e-06 0.000000e+00 9.434330e-04 5.006556e-01 1.000854e+00
345 1 1.200000e-05 5.000000e-06 0.000000e+00 9.359922e-04 4.994040e-01 -9.991455e-01
346 1 1.250000e-05 5.000000e-06 0.000000e+00 9.436625e-04 5.060036e-01 1.000854e+00
347 1 1.300000e-05 5.000000e-06 0.000000e+00 9.437384e-04 5.117524e-01 -9.991455e-01
348 1 1.350000e-05 5.000000e-06 0.000000e+00 9.281670e-04 4.857069e-01 1.000854e+00
349 1 1.400000e-05 5.000000e-06 0.000000e+00 9.280159e-04 4.808011e-01 -9.991455e-01
350 1 1.450000e-05 5.000000e-06 0.000000e+00 9.282486e-04 4.910009e-01 1.000854e+00
351 1 1.500000e-05 5.000000e-06 0.000000e+00 9.357711e-04 4.941956e-01 -9.991455e-01
352 1 1.550000e-05 5.000000e-06 0.000000e+00 9.434556e-04 6.998099e-01 1.000854e+00
353 1 0.000000e+00 5.500000e-06 0.000000e+00 9.360161e-04 6.987076e-01 1.000854e+00
354 1 5.000000e-07 5.500000e-06 0.000000e+00 9.282517e-04 4.907439e-01 -9.991455e-01