ITEM: TIMESTEP
9
ITEM: NUMBER OF ATOMS
16384
ITEM: BOX BOUNDS pp pp pp
0.0 1.600000e-05
0.0 1.600000e-05
0.0 8.000000e-06
ITEM: ATOMS id type x y z crack plastic psi
1 1 0.000000e+00 0.000000e+00 0.000000e+00 1.000000e+00 7.602544e-01 -9.991455e-01
2 1 5.000000e-07 0.000000e+00 0.000000e+00 1.000000e+00 7.131596e-01 1.000854e+00
3 1 1.000000e-06 0.000000e+00 0.000000e+00 1.000000e+00 6.858627e-01 -9.991455e-01
4 1 1.500000e-06 0.000000e+00 0.000000e+00 1.000000e+00 6.760070e-01 1.000854e+00
5 1 2.000000e-06 0.000000e+00 0.000000e+00 1.000000e+00 6.759449e-01 -9.991455e-01
6 1 2.500000e-06 0.000000e+00 0.000000e+00 1.000000e+00 6.710273e-01 1.000854e+00
7 1 3.000000e-06 0.000000e+00 0.000000e+00 1.000000e+00 6.804355e-01 -9.991455e-01
8 1 3.500000e-06 0.000000e+00 0.000000e+00 1.000000e+00 6.804067e-01 1.000854e+00
9 1 4.000000e-06 0.000000e+00 0.000000e+00 1.000000e+00 6.803805e-01 -9.991455e-01
10 1 4.500000e-06 0.000000e+00 0.000000e+00 1.000000e+00 6.656153e-01 1.000854e+00
11 1 5.000000e-06 0.000000e+00 0.000000e+00 1.000000e+00 6.747495e-01 -9.991455e-01
12 1 5.500000e-06 0.000000e+00 0.000000e+00 1.000000e+00 6.638985e-01 1.000854e+00
13 1 6.000000e-06 0.000000e+00 0.000000e+00 1.000000e+00 6.637202e-01 -9.991455e-01
14 1 6.500000e-06 0.000000e+00 0.000000e+00 1.000000e+00 6.803801e-01 1.000854e+00
15 1 7.000000e-06 0.000000e+00 0.000000e+00 1.000000e+00 6.961387e-01 -9.991455e-01
16 1 7.500000e-06 0.000000e+00 0.000000e+00 1.000000e+00 7.091640e-01 1.000854e+00
17 1 8.000000e-06 0.000000e+00 0.000000e+00 1.000000e+00 6.905949e-01 -9.991455e-01
18 1 8.500000e-06 0.000000e+00 0.000000e+00 1.000000e+00 6.708059e-01 1.000854e+00
19 1 9.000000e-06 0.000000e+00 0.000000e+00 1.000000e+00 6.783403e-01 1.000854e+00
20 1 9.500000e-06 0.000000e+00 0.000000e+00 1.000000e+00 6.737748e-01 -9.991455e-01
21 1 1.000000e-05 0.000000e+00 0.000000e+00 1.000000e+00 6.933676e-01 1.000854e+00
22 1 1.050000e-05 0.000000e+00 0.000000e+00 1.000000e+00 6.837316e-01 -9.991455e-01
23 1 1.100000e-05 0.000000e+00 0.000000e+00 1.000000e+00 6.988871e-01 1.000854e+00
24 1 1.150000e-05 0.000000e+00 0.000000e+00 1.000000e+00 6.989427e-01 -9.991455e-01
25 1 1.200000e-05 0.000000e+00 0.000000e+00 1.000000e+00 6.832543e-01 1.000854e+00
26 1 1.250000e-05 0.000000e+00 0.000000e+00 1.000000e+00 6.791699e-01 -9.991455e-01
27 1 1.300000e-05 0.000000e+00 0.000000e+00 1.000000e+00 6.869486e-01 1.000854e+00
28 1 1.350000e-05 0.000000e+00 0.000000e+00 1.000000e+00 6.814191e-01 -9.991455e-01
29 1 1.400000e-05 0.000000e+00 0.000000e+00 1.000000e+00 6.772114e-01 1.000854e+00
30 1 1.450000e-05 0.000000e+00 0.000000e+00 1.000000e+00 6.632734e-01 1.000854e+00
31 1 1.500000e-05 0.000000e+00 0.000000e+00 1.000000e+00 6.983442e-01 -9.991455e-01
32 1 1.550000e-05 0.000000e+00 0.000000e+00 1.000000e+00 8.050859e-01 1.000854e+00
33 1 0.000000e+00 5.000000e-07 0.000000e+00 1.000000e+00 5.747420e-01 1.000854e+00
34 1 5.000000e-07 5.000000e-07 0.000000e+00 1.000000e+00 4.921872e-01 -9.991455e-01
35 1 1.000000e-06 5.000000e-07 0.000000e+00 1.000000e+00 4.585630e-01 1.000854e+00
36 1 1.500000e-06 5.000000e-07 0.000000e+00 1.000000e+00 4.638426e-01 -9.991455e-01
37 1 2.000000e-06 5.000000e-07 0.000000e+00 1.000000e+00 4.631845e-01 1.000854e+00
38 1 2.500000e-06 5.000000e-07 0.000000e+00 1.000000e+00 4.691297e-01 -9.991455e-01
39 1 3.000000e-06 5.000000e-07 0.000000e+00 1.000000e+00 4.566164e-01 1.000854e+00
40 1 3.500000e-06 5.000000e-07 0.000000e+00 1.000000e+00 4.704240e-01 -9.991455e-01
41 1 4.000000e-06 5.000000e-07 0.000000e+00 1.000000e+00 4.713797e-01 1.000854e+00
42 1 4.500000e-06 5.000000e-07 0.000000e+00 1.000000e+00 4.654595e-01 -9.991455e-01
43 1 5.000000e-06 5.000000e-07 0.000000e+00 1.000000e+00 4.522552e-01 1.000854e+00
44 1 5.500000e-06 5.000000e-07 0.000000e+00 1.000000e+00 4.286468e-01 -9.991455e-01
45 1 6.000000e-06 5.000000e-07 0.000000e+00 1.000000e+00 4.498628e-01 1.000854e+00
46 1 6.500000e-06 5.000000e-07 0.000000e+00 1.000000e+00 4.866093e-01 -9.991455e-01
47 1 7.000000e-06 5.000000e-07 0.000000e+00 1.000000e+00 4.921423e-01 1.000854e+00
48 1 7.500000e-06 5.000000e-07 0.000000e+00 1.000000e+00 5.464477e-01 -9.991455e-01
49 1 8.000000e-06 5.000000e-07 0.000000e+00 1.000000e+00 4.964774e-01 1.000854e+00
50 1 8.500000e-06 5.000000e-07 0.000000e+00 1.000000e+00 4.611482e-01 -9.991455e-01
51 1 9.000000e-06 5.000000e-07 0.000000e+00 1.000000e+00 4.705290e-01 -9.991455e-01
52 1 9.500000e-06 5.000000e-07 0.000000e+00 1.000000e+00 4.851170e-01 1.000854e+00
53 1 1.000000e-05 5.000000e-07 0.000000e+00 1.000000e+00 4.692703e-01 -9.991455e-01
54 1 1.050000e-05 5.000000e-07 0.000000e+00 1.000000e+00 4.848954e-01 1.000854e+00
55 1 1.100000e-05 5.000000e-07 0.000000e+00 1.000000e+00 4.892787e-01 -9.991455e-01
56 1 1.150000e-05 5.000000e-07 0.000000e+00 1.000000e+00 4.753154e-01 1.000854e+00
57 1 1.200000e-05 5.000000e-07 0.000000e+00 1.000000e+00 4.600966e-01 -9.991455e-01
58 1 1.250000e-05 5.000000e-07 0.000000e+00 1.000000e+00 4.800420e-01 1.000854e+00
59 1 1.300000e-05 5.000000e-07 0.000000e+00 1.000000e+00 4.908130e-01 -9.991455e-01
60 1 1.350000e-05 5.000000e-07 0.000000e+00 1.000000e+00 4.812408e-01 1.000854e+00
61 1 1.400000e-05 5.000000e-07 0.000000e+00 1.000000e+00 4.825924e-01 -9.991455e-01
62 1 1.450000e-05 5.000000e-07 0.000000e+00 1.000000e+00 5.003763e-01 -9.991455e-01
63 1 1.500000e-05 5.000000e-07 0.000000e+00 1.000000e+00 5.150215e-01 1.000854e+00
64 1 1.550000e-05 5.000000e-07 0.000000e+00 1.000000e+00 6.436403e-01 -9.991455e-01
65 1 0.000000e+00 1.000000e-06 0.000000e+00 1.000000e+00 6.085254e-01 -9.991455e-01
66 1 5.000000e-07 1.000000e-06 0.000000e+00 1.000000e+00 5.115990e-01 1.000854e+00
67 1 1.000000e-06 1.000000e-06 0.000000e+00 1.000000e+00 4.636385e-01 -9.991455e-01
68 1 1.500000e-06 1.000000e-06 0.000000e+00 1.000000e+00 4.585652e-01 1.000854e+00
69 1 2.000000e-06 1.000000e-06 0.000000e+00 1.000000e+00 4.561883e-01 -9.991455e-01
70 1 2.500000e-06 1.000000e-06 0.000000e+00 1.000000e+00 4.565967e-01 1.000854e+00
71 1 3.000000e-06 1.000000e-06 0.000000e+00 1.000000e+00 4.452854e-01 -9.991455e-01
72 1 3.500000e-06 1.000000e-06 0.000000e+00 1.000000e+00 4.714069e-01 1.000854e+00
73 1 4.000000e-06 1.000000e-06 0.000000e+00 1.000000e+00 4.911326e-01 -9.991455e-01
74 1 4.500000e-06 1.000000e-06 0.000000e+00 1.000000e+00 5.118365e-01 1.000854e+00
75 1 5.000000e-06 1.000000e-06 0.000000e+00 1.000000e+00 5.067180e-01 -9.991455e-01
76 1 5.500000e-06 1.000000e-06 0.000000e+00 1.000000e+00 4.906657e-01 1.000854e+00
77 1 6.000000e-06 1.000000e-06 0.000000e+00 1.000000e+00 5.067453e-01 -9.991455e-01
78 1 6.500000e-06 1.000000e-06 0.000000e+00 1.000000e+00 4.586216e-01 1.000854e+00
79 1 7.000000e-06 1.000000e-06 0.000000e+00 1.000000e+00 4.467331e-01 -9.991455e-01
80 1 7.500000e-06 1.000000e-06 0.000000e+00 1.000000e+00 5.047487e-01 1.000854e+00
81 1 8.000000e-06 1.000000e-06 0.000000e+00 1.000000e+00 4.745514e-01 -9.991455e-01
82 1 8.500000e-06 1.000000e-06 0.000000e+00 1.000000e+00 4.686267e-01 1.000854e+00
83 1 9.000000e-06 1.000000e-06 0.000000e+00 1.000000e+00 4.823994e-01 1.000854e+00
84 1 9.500000e-06 1.000000e-06 0.000000e+00 1.000000e+00 4.970808e-01 -9.991455e-01
85 1 1.000000e-05 1.000000e-06 0.000000e+00 1.000000e+00 4.638897e-01 1.000854e+00
86 1 1.050000e-05 1.000000e-06 0.000000e+00 1.000000e+00 4.807348e-01 -9.991455e-01
87 1 1.100000e-05 1.000000e-06 0.000000e+00 1.000000e+00 4.824901e-01 1.000854e+00
88 1 1.150000e-05 1.000000e-06 0.000000e+00 1.000000e+00 4.779673e-01 -9.991455e-01
89 1 1.200000e-05 1.000000e-06 0.000000e+00 1.000000e+00 4.760429e-01 1.000854e+00
90 1 1.250000e-05 1.000000e-06 0.000000e+00 1.000000e+00 4.902975e-01 -9.991455e-01
91 1 1.300000e-05 1.000000e-06 0.000000e+00 1.000000e+00 4.775657e-01 1.000854e+00
92 1 1.350000e-05 1.000000e-06 0.000000e+00 1.000000e+00 4.840155e-01 -9.991455e-01
93 1 1.400000e-05 1.000000e-06 0.000000e+00 1.000000e+00 4.673879e-01 -9.991455e-01
94 1 1.450000e-05 1.000000e-06 0.000000e+00 1.000000e+00 4.924565e-01 1.000854e+00
95 1 1.500000e-05 1.000000e-06 0.000000e+00 1.000000e+00 5.139773e-01 -9.991455e-01
96 1 1.550000e-05 1.000000e-06 0.000000e+00 1.000000e+00 6.640597e-01 1.000854e+00
97 1 0.000000e+00 1.500000e-06 0.000000e+00 1.000000e+00 6.381974e-01 1.000854e+00
98 1 5.000000e-07 1.500000e-06 0.000000e+00 1.000000e+00 5.056208e-01 -9.991455e-01
99 1 1.000000e-06 1.500000e-06 0.000000e+00 1.000000e+00 4.745131e-01 1.000854e+00
100 1 1.500000e-06 1.500000e-06 0.000000e+00 1.000000e+00 4.908562e-01 -9.991455e-01
101 1 2.000000e-06 1.500000e-06 0.000000e+00 1.000000e+00 4.922189e-01 1.000854e+00
102 1 2.500000e-06 1.500000e-06 0.000000e+00 1.000000e+00 4.866213e-01 -9.991455e-01
103 1 3.000000e-06 1.500000e-06 0.000000e+00 1.000000e+00 4.811018e-01 1.000854e+00
104 1 3.500000e-06 1.500000e-06 0.000000e+00 1.000000e+00 4.810927e-01 -9.991455e-01
105 1 4.000000e-06 1.500000e-06 0.000000e+00 1.000000e+00 4.976329e-01 1.000854e+00
106 1 4.500000e-06 1.500000e-06 0.000000e+00 1.000000e+00 5.038787e-01 -9.991455e-01
107 1 5.000000e-06 1.500000e-06 0.000000e+00 1.000000e+00 5.036880e-01 1.000854e+00
108 1 5.500000e-06 1.500000e-06 0.000000e+00 1.000000e+00 4.998408e-01 -9.991455e-01
109 1 6.000000e-06 1.500000e-06 0.000000e+00 1.000000e+00 4.781681e-01 1.000854e+00
110 1 6.500000e-06 1.500000e-06 0.000000e+00 1.000000e+00 4.929341e-01 -9.991455e-01
111 1 7.000000e-06 1.500000e-06 0.000000e+00 1.000000e+00 4.947135e-01 1.000854e+00
112 1 7.500000e-06 1.500000e-06 0.000000e+00 1.000000e+00 4.883234e-01 -9.991455e-01
113 1 8.000000e-06 1.500000e-06 0.000000e+00 1.000000e+00 4.860725e-01 1.000854e+00
114 1 8.500000e-06 1.500000e-06 0.000000e+00 1.000000e+00 4.803567e-01 -9.991455e-01
115 1 9.000000e-06 1.500000e-06 0.000000e+00 1.000000e+00 4.902561e-01 1.000854e+00
116 1 9.500000e-06 1.500000e-06 0.000000e+00 1.000000e+00 4.752657e-01 1.000854e+00
117 1 1.000000e-05 1.500000e-06 0.000000e+00 1.000000e+00 4.644447e-01 -9.991455e-01
118 1 1.050000e-05 1.500000e-06 0.000000e+00 1.000000e+00 4.775676e-01 1.000854e+00
119 1 1.100000e-05 1.500000e-06 0.000000e+00 1.000000e+00 4.810956e-01 -9.991455e-01
120 1 1.150000e-05 1.500000e-06 0.000000e+00 1.000000e+00 4.644620e-01 1.000854e+00
121 1 1.200000e-05 1.500000e-06 0.000000e+00 1.000000e+00 4.932569e-01 -9.991455e-01
122 1 1.250000e-05 1.500000e-06 0.000000e+00 1.000000e+00 5.028966e-01 1.000854e+00
123 1 1.300000e-05 1.500000e-06 0.000000e+00 1.000000e+00 5.089868e-01 1.000854e+00
124 1 1.350000e-05 1.500000e-06 0.000000e+00 1.000000e+00 5.135897e-01 -9.991455e-01
125 1 1.400000e-05 1.500000e-06 0.000000e+00 1.000000e+00 5.117139e-01 1.000854e+00
126 1 1.450000e-05 1.500000e-06 0.000000e+00 1.000000e+00 5.231803e-01 -9.991455e-01
127 1 1.500000e-05 1.500000e-06 0.000000e+00 1.000000e+00 4.990658e-01 1.000854e+00
128 1 1.550000e-05 1.500000e-06 0.000000e+00 1.000000e+00 6.747875e-01 -9.991455e-01
129 1 0.000000e+00 2.000000e-06 0.000000e+00 1.000000e+00 6.533747e-01 -9.991455e-01
130 1 5.000000e-07 2.000000e-06 0.000000e+00 1.000000e+00 4.848490e-01 1.000854e+00
131 1 1.000000e-06 2.000000e-06 0.000000e+00 1.000000e+00 4.950728e-01 -9.991455e-01
132 1 1.500000e-06 2.000000e-06 0.000000e+00 1.000000e+00 4.892983e-01 1.000854e+00
133 1 2.000000e-06 2.000000e-06 0.000000e+00 1.000000e+00 4.734000e-01 -9.991455e-01
134 1 2.500000e-06 2.000000e-06 0.000000e+00 1.000000e+00 4.837470e-01 1.000854e+00
135 1 3.000000e-06 2.000000e-06 0.000000e+00 1.000000e+00 4.934124e-01 -9.991455e-01
136 1 3.500000e-06 2.000000e-06 0.000000e+00 1.000000e+00 4.811335e-01 1.000854e+00
137 1 4.000000e-06 2.000000e-06 0.000000e+00 1.000000e+00 5.003410e-01 -9.991455e-01
138 1 4.500000e-06 2.000000e-06 0.000000e+00 1.000000e+00 4.995433e-01 1.000854e+00
139 1 5.000000e-06 2.000000e-06 0.000000e+00 1.000000e+00 5.074783e-01 -9.991455e-01
140 1 5.500000e-06 2.000000e-06 0.000000e+00 1.000000e+00 4.657718e-01 1.000854e+00
141 1 6.000000e-06 2.000000e-06 0.000000e+00 1.000000e+00 4.962419e-01 -9.991455e-01
142 1 6.500000e-06 2.000000e-06 0.000000e+00 1.000000e+00 4.719268e-01 1.000854e+00
143 1 7.000000e-06 2.000000e-06 0.000000e+00 1.000000e+00 4.728027e-01 -9.991455e-01
144 1 7.500000e-06 2.000000e-06 0.000000e+00 1.000000e+00 4.788343e-01 1.000854e+00
145 1 8.000000e-06 2.000000e-06 0.000000e+00 1.000000e+00 4.807750e-01 -9.991455e-01
146 1 8.500000e-06 2.000000e-06 0.000000e+00 1.000000e+00 4.914193e-01 1.000854e+00
147 1 9.000000e-06 2.000000e-06 0.000000e+00 1.000000e+00 4.859168e-01 -9.991455e-01
148 1 9.500000e-06 2.000000e-06 0.000000e+00 1.000000e+00 4.596196e-01 1.000854e+00
149 1 1.000000e-05 2.000000e-06 0.000000e+00 1.000000e+00 4.957518e-01 -9.991455e-01
150 1 1.050000e-05 2.000000e-06 0.000000e+00 1.000000e+00 4.952953e-01 -9.991455e-01
151 1 1.100000e-05 2.000000e-06 0.000000e+00 1.000000e+00 4.953138e-01 1.000854e+00
152 1 1.150000e-05 2.000000e-06 0.000000e+00 1.000000e+00 4.901145e-01 1.000854e+00
153 1 1.200000e-05 2.000000e-06 0.000000e+00 1.000000e+00 5.070280e-01 -9.991455e-01
154 1 1.250000e-05 2.000000e-06 0.000000e+00 1.000000e+00 5.112522e-01 1.000854e+00
155 1 1.300000e-05 2.000000e-06 0.000000e+00 1.000000e+00 4.832009e-01 -9.991455e-01
156 1 1.350000e-05 2.000000e-06 0.000000e+00 1.000000e+00 4.908107e-01 1.000854e+00
157 1 1.400000e-05 2.000000e-06 0.000000e+00 1.000000e+00 4.904867e-01 -9.991455e-01
158 1 1.450000e-05 2.000000e-06 0.000000e+00 1.000000e+00 4.836467e-01 1.000854e+00
159 1 1.500000e-05 2.000000e-06 0.000000e+00 1.000000e+00 4.832299e-01 -9.991455e-01
160 1 1.550000e-05 2.000000e-06 0.000000e+00 1.000000e+00 6.721281e-01 1.000854e+00
161 1 0.000000e+00 2.500000e-06 0.000000e+00 1.000000e+00 6.664124e-01 1.000854e+00
162 1 5.000000e-07 2.500000e-06 0.000000e+00 1.000000e+00 4.994255e-01 -9.991455e-01
163 1 1.000000e-06 2.500000e-06 0.000000e+00 1.000000e+00 4.978191e-01 1.000854e+00
164 1 1.500000e-06 2.500000e-06 0.000000e+00 1.000000e+00 4.984341e-01 -9.991455e-01
165 1 2.000000e-06 2.500000e-06 0.000000e+00 1.000000e+00 4.869029e-01 1.000854e+00
166 1 2.500000e-06 2.500000e-06 0.000000e+00 1.000000e+00 4.705517e-01 -9.991455e-01
167 1 3.000000e-06 2.500000e-06 0.000000e+00 1.000000e+00 4.848400e-01 1.000854e+00
168 1 3.500000e-06 2.500000e-06 0.000000e+00 1.000000e+00 4.823913e-01 -9.991455e-01
169 1 4.000000e-06 2.500000e-06 0.000000e+00 1.000000e+00 4.931129e-01 1.000854e+00
170 1 4.500000e-06 2.500000e-06 0.000000e+00 1.000000e+00 4.916393e-01 -9.991455e-01
171 1 5.000000e-06 2.500000e-06 0.000000e+00 1.000000e+00 4.963350e-01 1.000854e+00
172 1 5.500000e-06 2.500000e-06 0.000000e+00 1.000000e+00 5.026605e-01 -9.991455e-01
173 1 6.000000e-06 2.500000e-06 0.000000e+00 1.000000e+00 4.999049e-01 1.000854e+00
174 1 6.500000e-06 2.500000e-06 0.000000e+00 1.000000e+00 5.008351e-01 -9.991455e-01
175 1 7.000000e-06 2.500000e-06 0.000000e+00 1.000000e+00 4.935797e-01 1.000854e+00
176 1 7.500000e-06 2.500000e-06 0.000000e+00 1.000000e+00 5.045504e-01 -9.991455e-01
177 1 8.000000e-06 2.500000e-06 0.000000e+00 1.000000e+00 5.071240e-01 1.000854e+00
178 1 8.500000e-06 2.500000e-06 0.000000e+00 1.000000e+00 5.100758e-01 -9.991455e-01
179 1 9.000000e-06 2.500000e-06 0.000000e+00 1.000000e+00 4.985536e-01 1.000854e+00
180 1 9.500000e-06 2.500000e-06 0.000000e+00 1.000000e+00 5.115952e-01 -9.991455e-01
181 1 1.000000e-05 2.500000e-06 0.000000e+00 1.000000e+00 4.868474e-01 1.000854e+00
182 1 1.050000e-05 2.500000e-06 0.000000e+00 1.000000e+00 5.066389e-01 -9.991455e-01
183 1 1.100000e-05 2.500000e-06 0.000000e+00 1.000000e+00 5.003926e-01 1.000854e+00
184 1 1.150000e-05 2.500000e-06 0.000000e+00 1.000000e+00 5.099221e-01 -9.991455e-01
185 1 1.200000e-05 2.500000e-06 0.000000e+00 1.000000e+00 5.429105e-01 1.000854e+00
186 1 1.250000e-05 2.500000e-06 0.000000e+00 1.000000e+00 5.138119e-01 -9.991455e-01
187 1 1.300000e-05 2.500000e-06 0.000000e+00 1.000000e+00 5.276860e-01 1.000854e+00
188 1 1.350000e-05 2.500000e-06 0.000000e+00 1.000000e+00 5.144125e-01 -9.991455e-01
189 1 1.400000e-05 2.500000e-06 0.000000e+00 1.000000e+00 5.102296e-01 1.000854e+00
190 1 1.450000e-05 2.500000e-06 0.000000e+00 1.000000e+00 4.988883e-01 -9.991455e-01
191 1 1.500000e-05 2.500000e-06 0.000000e+00 1.000000e+00 5.056884e-01 1.000854e+00
192 1 1.550000e-05 2.500000e-06 0.000000e+00 1.000000e+00 6.646093e-01 -9.991455e-01
193 1 0.000000e+00 3.000000e-06 0.000000e+00 1.000000e+00 6.893641e-01 -9.991455e-01
194 1 5.000000e-07 3.000000e-06 0.000000e+00 1.000000e+00 4.824262e-01 1.000854e+00
195 1 1.000000e-06 3.000000e-06 0.000000e+00 1.000000e+00 4.882066e-01 -9.991455e-01
196 1 1.500000e-06 3.000000e-06 0.000000e+00 1.000000e+00 4.908928e-01 1.000854e+00
197 1 2.000000e-06 3.000000e-06 0.000000e+00 1.000000e+00 4.697894e-01 -9.991455e-01
198 1 2.500000e-06 3.000000e-06 0.000000e+00 1.000000e+00 4.698602e-01 1.000854e+00
199 1 3.000000e-06 3.000000e-06 0.000000e+00 1.000000e+00 4.839947e-01 -9.991455e-01
200 1 3.500000e-06 3.000000e-06 0.000000e+00 1.000000e+00 4.878461e-01 1.000854e+00
201 1 4.000000e-06 3.000000e-06 0.000000e+00 1.000000e+00 4.811294e-01 -9.991455e-01
202 1 4.500000e-06 3.000000e-06 0.000000e+00 1.000000e+00 4.931312e-01 1.000854e+00
203 1 5.000000e-06 3.000000e-06 0.000000e+00 1.000000e+00 5.134596e-01 -9.991455e-01
204 1 5.500000e-06 3.000000e-06 0.000000e+00 1.000000e+00 5.035341e-01 1.000854e+00
205 1 6.000000e-06 3.000000e-06 0.000000e+00 1.000000e+00 5.015797e-01 -9.991455e-01
206 1 6.500000e-06 3.000000e-06 0.000000e+00 1.000000e+00 5.070661e-01 1.000854e+00
207 1 7.000000e-06 3.000000e-06 0.000000e+00 1.000000e+00 5.181449e-01 -9.991455e-01
208 1 7.500000e-06 3.000000e-06 0.000000e+00 1.000000e+00 4.842335e-01 1.000854e+00
209 1 8.000000e-06 3.000000e-06 0.000000e+00 1.000000e+00 4.619420e-01 -9.991455e-01
210 1 8.500000e-06 3.000000e-06 0.000000e+00 1.000000e+00 4.669203e-01 1.000854e+00
211 1 9.000000e-06 3.000000e-06 0.000000e+00 1.000000e+00 4.664803e-01 -9.991455e-01
212 1 9.500000e-06 3.000000e-06 0.000000e+00 1.000000e+00 4.955078e-01 1.000854e+00
213 1 1.000000e-05 3.000000e-06 0.000000e+00 1.000000e+00 4.665485e-01 -9.991455e-01
214 1 1.050000e-05 3.000000e-06 0.000000e+00 1.000000e+00 4.875523e-01 1.000854e+00
215 1 1.100000e-05 3.000000e-06 0.000000e+00 1.000000e+00 5.284729e-01 -9.991455e-01
216 1 1.150000e-05 3.000000e-06 0.000000e+00 1.000000e+00 5.356497e-01 1.000854e+00
217 1 1.200000e-05 3.000000e-06 0.000000e+00 1.000000e+00 4.939343e-01 -9.991455e-01
218 1 1.250000e-05 3.000000e-06 0.000000e+00 1.000000e+00 5.019709e-01 1.000854e+00
219 1 1.300000e-05 3.000000e-06 0.000000e+00 1.000000e+00 5.130049e-01 -9.991455e-01
220 1 1.350000e-05 3.000000e-06 0.000000e+00 1.000000e+00 5.101483e-01 1.000854e+00
221 1 1.400000e-05 3.000000e-06 0.000000e+00 1.000000e+00 5.053319e-01 -9.991455e-01
222 1 1.450000e-05 3.000000e-06 0.000000e+00 1.000000e+00 5.101966e-01 1.000854e+00
223 1 1.500000e-05 3.000000e-06 0.000000e+00 1.000000e+00 5.078408e-01 -9.991455e-01
224 1 1.550000e-05 3.000000e-06 0.000000e+00 1.000000e+00 7.059504e-01 1.000854e+00
225 1 0.000000e+00 3.500000e-06 0.000000e+00 1.000000e+00 6.803800e-01 1.000854e+00
226 1 5.000000e-07 3.500000e-06 0.000000e+00 1.000000e+00 4.811037e-01 -9.991455e-01
227 1 1.000000e-06 3.500000e-06 0.000000e+00 1.000000e+00 4.810770e-01 1.000854e+00
228 1 1.500000e-06 3.500000e-06 0.000000e+00 1.000000e+00 4.823565e-01 -9.991455e-01
229 1 2.000000e-06 3.500000e-06 0.000000e+00 1.000000e+00 4.757430e-01 1.000854e+00
230 1 2.500000e-06 3.500000e-06 0.000000e+00 1.000000e+00 4.740857e-01 -9.991455e-01
231 1 3.000000e-06 3.500000e-06 0.000000e+00 1.000000e+00 4.768337e-01 1.000854e+00
232 1 3.500000e-06 3.500000e-06 0.000000e+00 1.000000e+00 4.773033e-01 -9.991455e-01
233 1 4.000000e-06 3.500000e-06 0.000000e+00 1.000000e+00 4.687596e-01 1.000854e+00
234 1 4.500000e-06 3.500000e-06 0.000000e+00 1.000000e+00 4.342059e-01 -9.991455e-01
235 1 5.000000e-06 3.500000e-06 0.000000e+00 1.000000e+00 4.658709e-01 1.000854e+00
236 1 5.500000e-06 3.500000e-06 0.000000e+00 1.000000e+00 5.000515e-01 -9.991455e-01
237 1 6.000000e-06 3.500000e-06 0.000000e+00 1.000000e+00 4.823776e-01 1.000854e+00
238 1 6.500000e-06 3.500000e-06 0.000000e+00 1.000000e+00 4.824447e-01 -9.991455e-01
239 1 7.000000e-06 3.500000e-06 0.000000e+00 1.000000e+00 4.823700e-01 1.000854e+00
240 1 7.500000e-06 3.500000e-06 0.000000e+00 1.000000e+00 4.668261e-01 -9.991455e-01
241 1 8.000000e-06 3.500000e-06 0.000000e+00 1.000000e+00 4.838396e-01 1.000854e+00
242 1 8.500000e-06 3.500000e-06 0.000000e+00 1.000000e+00 4.643174e-01 -9.991455e-01
243 1 9.000000e-06 3.500000e-06 0.000000e+00 1.000000e+00 4.920823e-01 1.000854e+00
244 1 9.500000e-06 3.500000e-06 0.000000e+00 1.000000e+00 4.693719e-01 -9.991455e-01
245 1 1.000000e-05 3.500000e-06 0.000000e+00 1.000000e+00 4.639024e-01 1.000854e+00
246 1 1.050000e-05 3.500000e-06 0.000000e+00 1.000000e+00 4.453903e-01 -9.991455e-01
247 1 1.100000e-05 3.500000e-06 0.000000e+00 1.000000e+00 4.780189e-01 1.000854e+00
248 1 1.150000e-05 3.500000e-06 0.000000e+00 1.000000e+00 5.022524e-01 -9.991455e-01
249 1 1.200000e-05 3.500000e-06 0.000000e+00 1.000000e+00 4.810884e-01 1.000854e+00
250 1 1.250000e-05 3.500000e-06 0.000000e+00 1.000000e+00 4.866253e-01 -9.991455e-01
251 1 1.300000e-05 3.500000e-06 0.000000e+00 1.000000e+00 4.861759e-01 1.000854e+00
252 1 1.350000e-05 3.500000e-06 0.000000e+00 1.000000e+00 4.788911e-01 -9.991455e-01
253 1 1.400000e-05 3.500000e-06 0.000000e+00 1.000000e+00 4.674445e-01 1.000854e+00
254 1 1.450000e-05 3.500000e-06 0.000000e+00 1.000000e+00 4.692318e-01 -9.991455e-01
255 1 1.500000e-05 3.500000e-06 0.000000e+00 1.000000e+00 4.661027e-01 1.000854e+00
256 1 1.550000e-05 3.500000e-06 0.000000e+00 1.000000e+00 6.791897e-01 -9.991455e-01
257 1 0.000000e+00 4.000000e-06 0.000000e+00 1.000000e+00 6.822991e-01 -9.991455e-01
258 1 5.000000e-07 4.000000e-06 0.000000e+00 1.000000e+00 4.824138e-01 1.000854e+00
259 1 1.000000e-06 4.000000e-06 0.000000e+00 1.000000e+00 4.823864e-01 -9.991455e-01
260 1 1.500000e-06 4.000000e-06 0.000000e+00 1.000000e+00 4.849461e-01 1.000854e+00
261 1 2.000000e-06 4.000000e-06 0.000000e+00 1.000000e+00 4.815553e-01 -9.991455e-01
262 1 2.500000e-06 4.000000e-06 0.000000e+00 1.000000e+00 4.838163e-01 1.000854e+00
263 1 3.000000e-06 4.000000e-06 0.000000e+00 1.000000e+00 4.979544e-01 -9.991455e-01
264 1 3.500000e-06 4.000000e-06 0.000000e+00 1.000000e+00 5.011268e-01 1.000854e+00
265 1 4.000000e-06 4.000000e-06 0.000000e+00 1.000000e+00 4.923974e-01 -9.991455e-01
266 1 4.500000e-06 4.000000e-06 0.000000e+00 1.000000e+00 5.161008e-01 1.000854e+00
267 1 5.000000e-06 4.000000e-06 0.000000e+00 1.000000e+00 5.082294e-01 -9.991455e-01
268 1 5.500000e-06 4.000000e-06 0.000000e+00 1.000000e+00 4.996909e-01 1.000854e+00
269 1 6.000000e-06 4.000000e-06 0.000000e+00 1.000000e+00 5.025438e-01 -9.991455e-01
270 1 6.500000e-06 4.000000e-06 0.000000e+00 1.000000e+00 4.811162e-01 1.000854e+00
271 1 7.000000e-06 4.000000e-06 0.000000e+00 1.000000e+00 4.948221e-01 -9.991455e-01
272 1 7.500000e-06 4.000000e-06 0.000000e+00 1.000000e+00 4.977074e-01 1.000854e+00
273 1 8.000000e-06 4.000000e-06 0.000000e+00 1.000000e+00 4.935912e-01 -9.991455e-01
274 1 8.500000e-06 4.000000e-06 0.000000e+00 1.000000e+00 4.835113e-01 1.000854e+00
275 1 9.000000e-06 4.000000e-06 0.000000e+00 1.000000e+00 4.878457e-01 -9.991455e-01
276 1 9.500000e-06 4.000000e-06 0.000000e+00 1.000000e+00 4.811530e-01 1.000854e+00
277 1 1.000000e-05 4.000000e-06 0.000000e+00 1.000000e+00 4.811321e-01 -9.991455e-01
278 1 1.050000e-05 4.000000e-06 0.000000e+00 1.000000e+00 4.794325e-01 1.000854e+00
279 1 1.100000e-05 4.000000e-06 0.000000e+00 1.000000e+00 4.771517e-01 -9.991455e-01
280 1 1.150000e-05 4.000000e-06 0.000000e+00 1.000000e+00 4.834942e-01 1.000854e+00
281 1 1.200000e-05 4.000000e-06 0.000000e+00 1.000000e+00 4.935362e-01 -9.991455e-01
282 1 1.250000e-05 4.000000e-06 0.000000e+00 1.000000e+00 4.921782e-01 1.000854e+00
283 1 1.300000e-05 4.000000e-06 0.000000e+00 1.000000e+00 4.892903e-01 -9.991455e-01
284 1 1.350000e-05 4.000000e-06 0.000000e+00 1.000000e+00 4.826936e-01 1.000854e+00
285 1 1.400000e-05 4.000000e-06 0.000000e+00 1.000000e+00 4.870626e-01 -9.991455e-01
286 1 1.450000e-05 4.000000e-06 0.000000e+00 1.000000e+00 4.853595e-01 1.000854e+00
287 1 1.500000e-05 4.000000e-06 0.000000e+00 1.000000e+00 4.839753e-01 -9.991455e-01
288 1 1.550000e-05 4.000000e-06 0.000000e+00 1.000000e+00 6.843937e-01 1.000854e+00
289 1 0.000000e+00 4.500000e-06 0.000000e+00 1.000000e+00 6.754202e-01 1.000854e+00
290 1 5.000000e-07 4.500000e-06 0.000000e+00 1.000000e+00 4.825096e-01 -9.991455e-01
291 1 1.000000e-06 4.500000e-06 0.000000e+00 1.000000e+00 4.824805e-01 1.000854e+00
292 1 1.500000e-06 4.500000e-06 0.000000e+00 1.000000e+00 4.825046e-01 -9.991455e-01
293 1 2.000000e-06 4.500000e-06 0.000000e+00 1.000000e+00 4.855913e-01 1.000854e+00
294 1 2.500000e-06 4.500000e-06 0.000000e+00 1.000000e+00 4.786456e-01 -9.991455e-01
295 1 3.000000e-06 4.500000e-06 0.000000e+00 1.000000e+00 5.076308e-01 1.000854e+00
296 1 3.500000e-06 4.500000e-06 0.000000e+00 1.000000e+00 4.948624e-01 -9.991455e-01
297 1 4.000000e-06 4.500000e-06 0.000000e+00 1.000000e+00 4.927844e-01 1.000854e+00
298 1 4.500000e-06 4.500000e-06 0.000000e+00 1.000000e+00 4.673324e-01 -9.991455e-01
299 1 5.000000e-06 4.500000e-06 0.000000e+00 1.000000e+00 4.931860e-01 1.000854e+00
300 1 5.500000e-06 4.500000e-06 0.000000e+00 1.000000e+00 4.889799e-01 -9.991455e-01
301 1 6.000000e-06 4.500000e-06 0.000000e+00 1.000000e+00 4.793790e-01 1.000854e+00
302 1 6.500000e-06 4.500000e-06 0.000000e+00 1.000000e+00 4.837870e-01 -9.991455e-01
303 1 7.000000e-06 4.500000e-06 0.000000e+00 1.000000e+00 4.823467e-01 1.000854e+00
304 1 7.500000e-06 4.500000e-06 0.000000e+00 1.000000e+00 4.861849e-01 -9.991455e-01
305 1 8.000000e-06 4.500000e-06 0.000000e+00 1.000000e+00 4.919749e-01 1.000854e+00
306 1 8.500000e-06 4.500000e-06 0.000000e+00 1.000000e+00 4.904778e-01 -9.991455e-01
307 1 9.000000e-06 4.500000e-06 0.000000e+00 1.000000e+00 4.810748e-01 1.000854e+00
308 1 9.500000e-06 4.500000e-06 0.000000e+00 1.000000e+00 4.866221e-01 -9.991455e-01
309 1 1.000000e-05 4.500000e-06 0.000000e+00 1.000000e+00 4.771820e-01 1.000854e+00
310 1 1.050000e-05 4.500000e-06 0.000000e+00 1.000000e+00 4.861916e-01 -9.991455e-01
311 1 1.100000e-05 4.500000e-06 0.000000e+00 1.000000e+00 4.760907e-01 1.000854e+00
312 1 1.150000e-05 4.500000e-06 0.000000e+00 1.000000e+00 4.793704e-01 -9.991455e-01
313 1 1.200000e-05 4.500000e-06 0.000000e+00 1.000000e+00 4.824061e-01 1.000854e+00
314 1 1.250000e-05 4.500000e-06 0.000000e+00 1.000000e+00 4.904533e-01 -9.991455e-01
315 1 1.300000e-05 4.500000e-06 0.000000e+00 1.000000e+00 4.870605e-01 1.000854e+00
316 1 1.350000e-05 4.500000e-06 0.000000e+00 1.000000e+00 4.794460e-01 -9.991455e-01
317 1 1.400000e-05 4.500000e-06 0.000000e+00 1.000000e+00 4.690598e-01 1.000854e+00
318 1 1.450000e-05 4.500000e-06 0.000000e+00 1.000000e+00 4.779849e-01 -9.991455e-01
319 1 1.500000e-05 4.500000e-06 0.000000e+00 1.000000e+00 4.912908e-01 1.000854e+00
320 1 1.550000e-05 4.500000e-06 0.000000e+00 1.000000e+00 6.910344e-01 -9.991455e-01
321 1 0.000000e+00 5.000000e-06 0.000000e+00 1.000000e+00 6.823115e-01 -9.991455e-01
322 1 5.000000e-07 5.000000e-06 0.000000e+00 1.000000e+00 4.823567e-01 1.000854e+00
323 1 1.000000e-06 5.000000e-06 0.000000e+00 1.000000e+00 4.823807e-01 -9.991455e-01
324 1 1.500000e-06 5.000000e-06 0.000000e+00 1.000000e+00 4.794469e-01 1.000854e+00
325 1 2.000000e-06 5.000000e-06 0.000000e+00 1.000000e+00 4.800277e-01 -9.991455e-01
326 1 2.500000e-06 5.000000e-06 0.000000e+00 1.000000e+00 4.811863e-01 1.000854e+00
327 1 3.000000e-06 5.000000e-06 0.000000e+00 1.000000e+00 4.933157e-01 -9.991455e-01
328 1 3.500000e-06 5.000000e-06 0.000000e+00 1.000000e+00 5.003449e-01 1.000854e+00
329 1 4.000000e-06 5.000000e-06 0.000000e+00 1.000000e+00 5.011914e-01 -9.991455e-01
330 1 4.500000e-06 5.000000e-06 0.000000e+00 1.000000e+00 4.589935e-01 1.000854e+00
331 1 5.000000e-06 5.000000e-06 0.000000e+00 1.000000e+00 4.769871e-01 -9.991455e-01
332 1 5.500000e-06 5.000000e-06 0.000000e+00 1.000000e+00 4.921085e-01 1.000854e+00
333 1 6.000000e-06 5.000000e-06 0.000000e+00 1.000000e+00 4.845217e-01 -9.991455e-01
334 1 6.500000e-06 5.000000e-06 0.000000e+00 1.000000e+00 4.823762e-01 1.000854e+00
335 1 7.000000e-06 5.000000e-06 0.000000e+00 1.000000e+00 4.811465e-01 -9.991455e-01
336 1 7.500000e-06 5.000000e-06 0.000000e+00 1.000000e+00 4.824252e-01 1.000854e+00
337 1 8.000000e-06 5.000000e-06 0.000000e+00 1.000000e+00 4.893148e-01 -9.991455e-01
338 1 8.500000e-06 5.000000e-06 0.000000e+00 1.000000e+00 4.922336e-01 1.000854e+00
339 1 9.000000e-06 5.000000e-06 0.000000e+00 1.000000e+00 4.811285e-01 -9.991455e-01
340 1 9.500000e-06 5.000000e-06 0.000000e+00 1.000000e+00 4.921460e-01 1.000854e+00
341 1 1.000000e-05 5.000000e-06 0.000000e+00 1.000000e+00 4.892251e-01 -9.991455e-01
342 1 1.050000e-05 5.000000e-06 0.000000e+00 1.000000e+00 4.905792e-01 1.000854e+00
343 1 1.100000e-05 5.000000e-06 0.000000e+00 1.000000e+00 4.935519e-01 -9.991455e-01
344 1 1.150000e-05 5.000000e-06 0.000000e+00 1.000000e+00 4.826656e-01 1.000854e+00
345 1 1.200000e-05 5.000000e-06 0.000000e+00 1.000000e+00 4.811203e-01 -9.991455e-01
346 1 1.250000e-05 5.000000e-06 0.000000e+00 1.000000e+00 4.892680e-01 1.000854e+00
347 1 1.300000e-05 5.000000e-06 0.000000e+00 1.000000e+00 4.963652e-01 -9.991455e-01
348 1 1.350000e-05 5.000000e-06 0.000000e+00 1.000000e+00 4.642103e-01 1.000854e+00
349 1 1.400000e-05 5.000000e-06 0.000000e+00 1.000000e+00 4.581537e-01 -9.991455e-01
350 1 1.450000e-05 5.000000e-06 0.000000e+00 1.000000e+00 4.707461e-01 1.000854e+00
351 1 1.500000e-05 5.000000e-06 0.000000e+00 1.000000e+00 4.746902e-01 -9.991455e-01
352 1 1.550000e-05 5.000000e-06 0.000000e+00 1.000000e+00 6.724389e-01 1.000854e+00
353 1 0.000000e+00 5.500000e-06 0.000000e+00 1.000000e+00 6.710781e-01 1.000854e+00
354 1 5.000000e-07 5.500000e-06 0.000000e+00 1.000000e+00 4.704289e-01 -9.991455e-01