ITEM: TIMESTEP
25
ITEM: NUMBER OF ATOMS
16384
ITEM: BOX BOUNDS pp pp pp
0.0 1.600000e-05
0.0 1.600000e-05
0.0 8.000000e-06
ITEM: ATOMS id type x y z crack plastic psi
1 1 0.000000e+00 0.000000e+00 0.000000e+00 1.000000e+00 9.917679e-01 -1.000000e+00
2 1 5.000000e-07 0.000000e+00 0.000000e+00 1.000000e+00 8.129483e-01 1.000000e+00
3 1 1.000000e-06 0.000000e+00 0.000000e+00 1.000000e+00 8.120110e-01 -1.000000e+00
4 1 1.500000e-06 0.000000e+00 0.000000e+00 1.000000e+00 8.116726e-01 1.000000e+00
5 1 2.000000e-06 0.000000e+00 0.000000e+00 1.000000e+00 8.116705e-01 -1.000000e+00
6 1 2.500000e-06 0.000000e+00 0.000000e+00 1.000000e+00 8.115016e-01 1.000000e+00
7 1 3.000000e-06 0.000000e+00 0.000000e+00 1.000000e+00 8.118247e-01 -1.000000e+00
8 1 3.500000e-06 0.000000e+00 0.000000e+00 1.000000e+00 8.118237e-01 1.000000e+00
9 1 4.000000e-06 0.000000e+00 0.000000e+00 1.000000e+00 8.118228e-01 -1.000000e+00
10 1 4.500000e-06 0.000000e+00 0.000000e+00 1.000000e+00 8.113158e-01 1.000000e+00
11 1 5.000000e-06 0.000000e+00 0.000000e+00 1.000000e+00 8.116294e-01 -1.000000e+00
12 1 5.500000e-06 0.000000e+00 0.000000e+00 1.000000e+00 8.112568e-01 1.000000e+00
13 1 6.000000e-06 0.000000e+00 0.000000e+00 1.000000e+00 8.112507e-01 -1.000000e+00
14 1 6.500000e-06 0.000000e+00 0.000000e+00 1.000000e+00 8.118228e-01 1.000000e+00
15 1 7.000000e-06 0.000000e+00 0.000000e+00 1.000000e+00 8.123639e-01 -1.000000e+00
16 1 7.500000e-06 0.000000e+00 0.000000e+00 1.000000e+00 8.128111e-01 1.000000e+00
17 1 8.000000e-06 0.000000e+00 0.000000e+00 1.000000e+00 8.121735e-01 -1.000000e+00
18 1 8.500000e-06 0.000000e+00 0.000000e+00 1.000000e+00 8.118929e-01 1.000000e+00
19 1 9.000000e-06 0.000000e+00 0.000000e+00 1.000000e+00 8.123849e-01 -1.000000e+00
20 1 9.500000e-06 0.000000e+00 0.000000e+00 1.000000e+00 8.120885e-01 1.000000e+00
21 1 1.000000e-05 0.000000e+00 0.000000e+00 1.000000e+00 8.128159e-01 -1.000000e+00
22 1 1.050000e-05 0.000000e+00 0.000000e+00 1.000000e+00 8.125459e-01 1.000000e+00
23 1 1.100000e-05 0.000000e+00 0.000000e+00 1.000000e+00 8.113534e-01 -1.000000e+00
24 1 1.150000e-05 0.000000e+00 0.000000e+00 1.000000e+00 8.090499e-01 1.000000e+00
25 1 1.200000e-05 0.000000e+00 0.000000e+00 1.000000e+00 8.112471e-01 -1.000000e+00
26 1 1.250000e-05 0.000000e+00 0.000000e+00 1.000000e+00 8.123284e-01 1.000000e+00
27 1 1.300000e-05 0.000000e+00 0.000000e+00 1.000000e+00 8.125408e-01 -1.000000e+00
28 1 1.350000e-05 0.000000e+00 0.000000e+00 1.000000e+00 8.123017e-01 1.000000e+00
29 1 1.400000e-05 0.000000e+00 0.000000e+00 1.000000e+00 8.121129e-01 -1.000000e+00
30 1 1.450000e-05 0.000000e+00 0.000000e+00 1.000000e+00 8.114243e-01 1.000000e+00
31 1 1.500000e-05 0.000000e+00 0.000000e+00 1.000000e+00 8.124396e-01 -1.000000e+00
32 1 1.550000e-05 0.000000e+00 0.000000e+00 1.000000e+00 9.933073e-01 1.000000e+00
33 1 0.000000e+00 5.000000e-07 0.000000e+00 1.000000e+00 8.081955e-01 1.000000e+00
34 1 5.000000e-07 5.000000e-07 0.000000e+00 1.000000e+00 5.744260e-01 -1.000000e+00
35 1 1.000000e-06 5.000000e-07 0.000000e+00 1.000000e+00 5.732715e-01 1.000000e+00
36 1 1.500000e-06 5.000000e-07 0.000000e+00 1.000000e+00 5.734528e-01 -1.000000e+00
37 1 2.000000e-06 5.000000e-07 0.000000e+00 1.000000e+00 5.734302e-01 1.000000e+00
38 1 2.500000e-06 5.000000e-07 0.000000e+00 1.000000e+00 5.736343e-01 -1.000000e+00
39 1 3.000000e-06 5.000000e-07 0.000000e+00 1.000000e+00 5.732047e-01 1.000000e+00
40 1 3.500000e-06 5.000000e-07 0.000000e+00 1.000000e+00 5.736788e-01 -1.000000e+00
41 1 4.000000e-06 5.000000e-07 0.000000e+00 1.000000e+00 5.737116e-01 1.000000e+00
42 1 4.500000e-06 5.000000e-07 0.000000e+00 1.000000e+00 5.735083e-01 -1.000000e+00
43 1 5.000000e-06 5.000000e-07 0.000000e+00 1.000000e+00 5.730549e-01 1.000000e+00
44 1 5.500000e-06 5.000000e-07 0.000000e+00 1.000000e+00 5.722443e-01 -1.000000e+00
45 1 6.000000e-06 5.000000e-07 0.000000e+00 1.000000e+00 5.729728e-01 1.000000e+00
46 1 6.500000e-06 5.000000e-07 0.000000e+00 1.000000e+00 5.742345e-01 -1.000000e+00
47 1 7.000000e-06 5.000000e-07 0.000000e+00 1.000000e+00 5.744245e-01 1.000000e+00
48 1 7.500000e-06 5.000000e-07 0.000000e+00 1.000000e+00 5.762892e-01 -1.000000e+00
49 1 8.000000e-06 5.000000e-07 0.000000e+00 1.000000e+00 5.745734e-01 1.000000e+00
50 1 8.500000e-06 5.000000e-07 0.000000e+00 1.000000e+00 5.739091e-01 -1.000000e+00
51 1 9.000000e-06 5.000000e-07 0.000000e+00 1.000000e+00 5.735465e-01 1.000000e+00
52 1 9.500000e-06 5.000000e-07 0.000000e+00 1.000000e+00 5.751511e-01 -1.000000e+00
53 1 1.000000e-05 5.000000e-07 0.000000e+00 1.000000e+00 5.747145e-01 1.000000e+00
54 1 1.050000e-05 5.000000e-07 0.000000e+00 1.000000e+00 5.731923e-01 -1.000000e+00
55 1 1.100000e-05 5.000000e-07 0.000000e+00 1.000000e+00 5.751627e-01 1.000000e+00
56 1 1.150000e-05 5.000000e-07 0.000000e+00 1.000000e+00 5.750415e-01 -1.000000e+00
57 1 1.200000e-05 5.000000e-07 0.000000e+00 1.000000e+00 5.744353e-01 1.000000e+00
58 1 1.250000e-05 5.000000e-07 0.000000e+00 1.000000e+00 5.731240e-01 -1.000000e+00
59 1 1.300000e-05 5.000000e-07 0.000000e+00 1.000000e+00 5.739390e-01 1.000000e+00
60 1 1.350000e-05 5.000000e-07 0.000000e+00 1.000000e+00 5.736543e-01 -1.000000e+00
61 1 1.400000e-05 5.000000e-07 0.000000e+00 1.000000e+00 5.737403e-01 1.000000e+00
62 1 1.450000e-05 5.000000e-07 0.000000e+00 1.000000e+00 5.749672e-01 -1.000000e+00
63 1 1.500000e-05 5.000000e-07 0.000000e+00 1.000000e+00 5.752101e-01 1.000000e+00
64 1 1.550000e-05 5.000000e-07 0.000000e+00 1.000000e+00 8.105612e-01 -1.000000e+00
65 1 0.000000e+00 1.000000e-06 0.000000e+00 1.000000e+00 8.093555e-01 -1.000000e+00
66 1 5.000000e-07 1.000000e-06 0.000000e+00 1.000000e+00 5.750926e-01 1.000000e+00
67 1 1.000000e-06 1.000000e-06 0.000000e+00 1.000000e+00 5.734458e-01 -1.000000e+00
68 1 1.500000e-06 1.000000e-06 0.000000e+00 1.000000e+00 5.732716e-01 1.000000e+00
69 1 2.000000e-06 1.000000e-06 0.000000e+00 1.000000e+00 5.731899e-01 -1.000000e+00
70 1 2.500000e-06 1.000000e-06 0.000000e+00 1.000000e+00 5.732040e-01 1.000000e+00
71 1 3.000000e-06 1.000000e-06 0.000000e+00 1.000000e+00 5.728156e-01 -1.000000e+00
72 1 3.500000e-06 1.000000e-06 0.000000e+00 1.000000e+00 5.737125e-01 1.000000e+00
73 1 4.000000e-06 1.000000e-06 0.000000e+00 1.000000e+00 5.743898e-01 -1.000000e+00
74 1 4.500000e-06 1.000000e-06 0.000000e+00 1.000000e+00 5.751007e-01 1.000000e+00
75 1 5.000000e-06 1.000000e-06 0.000000e+00 1.000000e+00 5.749250e-01 -1.000000e+00
76 1 5.500000e-06 1.000000e-06 0.000000e+00 1.000000e+00 5.743738e-01 1.000000e+00
77 1 6.000000e-06 1.000000e-06 0.000000e+00 1.000000e+00 5.749259e-01 -1.000000e+00
78 1 6.500000e-06 1.000000e-06 0.000000e+00 1.000000e+00 5.732735e-01 1.000000e+00
79 1 7.000000e-06 1.000000e-06 0.000000e+00 1.000000e+00 5.728653e-01 -1.000000e+00
80 1 7.500000e-06 1.000000e-06 0.000000e+00 1.000000e+00 5.748574e-01 1.000000e+00
81 1 8.000000e-06 1.000000e-06 0.000000e+00 1.000000e+00 5.738205e-01 -1.000000e+00
82 1 8.500000e-06 1.000000e-06 0.000000e+00 1.000000e+00 5.738770e-01 1.000000e+00
83 1 9.000000e-06 1.000000e-06 0.000000e+00 1.000000e+00 5.751351e-01 -1.000000e+00
84 1 9.500000e-06 1.000000e-06 0.000000e+00 1.000000e+00 5.757553e-01 1.000000e+00
85 1 1.000000e-05 1.000000e-06 0.000000e+00 1.000000e+00 5.747446e-01 -1.000000e+00
86 1 1.050000e-05 1.000000e-06 0.000000e+00 1.000000e+00 5.738651e-01 1.000000e+00
87 1 1.100000e-05 1.000000e-06 0.000000e+00 1.000000e+00 5.751670e-01 -1.000000e+00
88 1 1.150000e-05 1.000000e-06 0.000000e+00 1.000000e+00 5.737700e-01 1.000000e+00
89 1 1.200000e-05 1.000000e-06 0.000000e+00 1.000000e+00 5.748718e-01 -1.000000e+00
90 1 1.250000e-05 1.000000e-06 0.000000e+00 1.000000e+00 5.742102e-01 1.000000e+00
91 1 1.300000e-05 1.000000e-06 0.000000e+00 1.000000e+00 5.740783e-01 -1.000000e+00
92 1 1.350000e-05 1.000000e-06 0.000000e+00 1.000000e+00 5.740503e-01 1.000000e+00
93 1 1.400000e-05 1.000000e-06 0.000000e+00 1.000000e+00 5.740696e-01 -1.000000e+00
94 1 1.450000e-05 1.000000e-06 0.000000e+00 1.000000e+00 5.744353e-01 1.000000e+00
95 1 1.500000e-05 1.000000e-06 0.000000e+00 1.000000e+00 5.751742e-01 -1.000000e+00
96 1 1.550000e-05 1.000000e-06 0.000000e+00 1.000000e+00 8.112624e-01 1.000000e+00
97 1 0.000000e+00 1.500000e-06 0.000000e+00 1.000000e+00 8.103744e-01 1.000000e+00
98 1 5.000000e-07 1.500000e-06 0.000000e+00 1.000000e+00 5.748873e-01 -1.000000e+00
99 1 1.000000e-06 1.500000e-06 0.000000e+00 1.000000e+00 5.738192e-01 1.000000e+00
100 1 1.500000e-06 1.500000e-06 0.000000e+00 1.000000e+00 5.743803e-01 -1.000000e+00
101 1 2.000000e-06 1.500000e-06 0.000000e+00 1.000000e+00 5.744271e-01 1.000000e+00
102 1 2.500000e-06 1.500000e-06 0.000000e+00 1.000000e+00 5.742349e-01 -1.000000e+00
103 1 3.000000e-06 1.500000e-06 0.000000e+00 1.000000e+00 5.740454e-01 1.000000e+00
104 1 3.500000e-06 1.500000e-06 0.000000e+00 1.000000e+00 5.740451e-01 -1.000000e+00
105 1 4.000000e-06 1.500000e-06 0.000000e+00 1.000000e+00 5.746130e-01 1.000000e+00
106 1 4.500000e-06 1.500000e-06 0.000000e+00 1.000000e+00 5.748275e-01 -1.000000e+00
107 1 5.000000e-06 1.500000e-06 0.000000e+00 1.000000e+00 5.748209e-01 1.000000e+00
108 1 5.500000e-06 1.500000e-06 0.000000e+00 1.000000e+00 5.746888e-01 -1.000000e+00
109 1 6.000000e-06 1.500000e-06 0.000000e+00 1.000000e+00 5.739447e-01 1.000000e+00
110 1 6.500000e-06 1.500000e-06 0.000000e+00 1.000000e+00 5.744517e-01 -1.000000e+00
111 1 7.000000e-06 1.500000e-06 0.000000e+00 1.000000e+00 5.745128e-01 1.000000e+00
112 1 7.500000e-06 1.500000e-06 0.000000e+00 1.000000e+00 5.742934e-01 -1.000000e+00
113 1 8.000000e-06 1.500000e-06 0.000000e+00 1.000000e+00 5.742161e-01 1.000000e+00
114 1 8.500000e-06 1.500000e-06 0.000000e+00 1.000000e+00 5.740198e-01 -1.000000e+00
115 1 9.000000e-06 1.500000e-06 0.000000e+00 1.000000e+00 5.748548e-01 1.000000e+00
116 1 9.500000e-06 1.500000e-06 0.000000e+00 1.000000e+00 5.748901e-01 -1.000000e+00
117 1 1.000000e-05 1.500000e-06 0.000000e+00 1.000000e+00 5.746045e-01 1.000000e+00
118 1 1.050000e-05 1.500000e-06 0.000000e+00 1.000000e+00 5.748906e-01 -1.000000e+00
119 1 1.100000e-05 1.500000e-06 0.000000e+00 1.000000e+00 5.750117e-01 1.000000e+00
120 1 1.150000e-05 1.500000e-06 0.000000e+00 1.000000e+00 5.747005e-01 -1.000000e+00
121 1 1.200000e-05 1.500000e-06 0.000000e+00 1.000000e+00 5.755938e-01 1.000000e+00
122 1 1.250000e-05 1.500000e-06 0.000000e+00 1.000000e+00 5.761598e-01 -1.000000e+00
123 1 1.300000e-05 1.500000e-06 0.000000e+00 1.000000e+00 5.757868e-01 1.000000e+00
124 1 1.350000e-05 1.500000e-06 0.000000e+00 1.000000e+00 5.754209e-01 -1.000000e+00
125 1 1.400000e-05 1.500000e-06 0.000000e+00 1.000000e+00 5.750965e-01 1.000000e+00
126 1 1.450000e-05 1.500000e-06 0.000000e+00 1.000000e+00 5.754902e-01 -1.000000e+00
127 1 1.500000e-05 1.500000e-06 0.000000e+00 1.000000e+00 5.746622e-01 1.000000e+00
128 1 1.550000e-05 1.500000e-06 0.000000e+00 1.000000e+00 8.116307e-01 -1.000000e+00
129 1 0.000000e+00 2.000000e-06 0.000000e+00 1.000000e+00 8.108955e-01 -1.000000e+00
130 1 5.000000e-07 2.000000e-06 0.000000e+00 1.000000e+00 5.741741e-01 1.000000e+00
131 1 1.000000e-06 2.000000e-06 0.000000e+00 1.000000e+00 5.745251e-01 -1.000000e+00
132 1 1.500000e-06 2.000000e-06 0.000000e+00 1.000000e+00 5.743268e-01 1.000000e+00
133 1 2.000000e-06 2.000000e-06 0.000000e+00 1.000000e+00 5.737809e-01 -1.000000e+00
134 1 2.500000e-06 2.000000e-06 0.000000e+00 1.000000e+00 5.741362e-01 1.000000e+00
135 1 3.000000e-06 2.000000e-06 0.000000e+00 1.000000e+00 5.744681e-01 -1.000000e+00
136 1 3.500000e-06 2.000000e-06 0.000000e+00 1.000000e+00 5.740465e-01 1.000000e+00
137 1 4.000000e-06 2.000000e-06 0.000000e+00 1.000000e+00 5.747060e-01 -1.000000e+00
138 1 4.500000e-06 2.000000e-06 0.000000e+00 1.000000e+00 5.746786e-01 1.000000e+00
139 1 5.000000e-06 2.000000e-06 0.000000e+00 1.000000e+00 5.749511e-01 -1.000000e+00
140 1 5.500000e-06 2.000000e-06 0.000000e+00 1.000000e+00 5.735190e-01 1.000000e+00
141 1 6.000000e-06 2.000000e-06 0.000000e+00 1.000000e+00 5.745653e-01 -1.000000e+00
142 1 6.500000e-06 2.000000e-06 0.000000e+00 1.000000e+00 5.737304e-01 1.000000e+00
143 1 7.000000e-06 2.000000e-06 0.000000e+00 1.000000e+00 5.737604e-01 -1.000000e+00
144 1 7.500000e-06 2.000000e-06 0.000000e+00 1.000000e+00 5.739675e-01 1.000000e+00
145 1 8.000000e-06 2.000000e-06 0.000000e+00 1.000000e+00 5.740342e-01 -1.000000e+00
146 1 8.500000e-06 2.000000e-06 0.000000e+00 1.000000e+00 5.743997e-01 1.000000e+00
147 1 9.000000e-06 2.000000e-06 0.000000e+00 1.000000e+00 5.742107e-01 -1.000000e+00
148 1 9.500000e-06 2.000000e-06 0.000000e+00 1.000000e+00 5.735678e-01 1.000000e+00
149 1 1.000000e-05 2.000000e-06 0.000000e+00 1.000000e+00 5.753324e-01 -1.000000e+00
150 1 1.050000e-05 2.000000e-06 0.000000e+00 1.000000e+00 5.741765e-01 1.000000e+00
151 1 1.100000e-05 2.000000e-06 0.000000e+00 1.000000e+00 5.741771e-01 -1.000000e+00
152 1 1.150000e-05 2.000000e-06 0.000000e+00 1.000000e+00 5.751388e-01 1.000000e+00
153 1 1.200000e-05 2.000000e-06 0.000000e+00 1.000000e+00 5.754845e-01 -1.000000e+00
154 1 1.250000e-05 2.000000e-06 0.000000e+00 1.000000e+00 5.753407e-01 1.000000e+00
155 1 1.300000e-05 2.000000e-06 0.000000e+00 1.000000e+00 5.741175e-01 -1.000000e+00
156 1 1.350000e-05 2.000000e-06 0.000000e+00 1.000000e+00 5.743788e-01 1.000000e+00
157 1 1.400000e-05 2.000000e-06 0.000000e+00 1.000000e+00 5.743676e-01 -1.000000e+00
158 1 1.450000e-05 2.000000e-06 0.000000e+00 1.000000e+00 5.741328e-01 1.000000e+00
159 1 1.500000e-05 2.000000e-06 0.000000e+00 1.000000e+00 5.741185e-01 -1.000000e+00
160 1 1.550000e-05 2.000000e-06 0.000000e+00 1.000000e+00 8.115394e-01 1.000000e+00
161 1 0.000000e+00 2.500000e-06 0.000000e+00 1.000000e+00 8.113432e-01 1.000000e+00
162 1 5.000000e-07 2.500000e-06 0.000000e+00 1.000000e+00 5.746746e-01 -1.000000e+00
163 1 1.000000e-06 2.500000e-06 0.000000e+00 1.000000e+00 5.746194e-01 1.000000e+00
164 1 1.500000e-06 2.500000e-06 0.000000e+00 1.000000e+00 5.746405e-01 -1.000000e+00
165 1 2.000000e-06 2.500000e-06 0.000000e+00 1.000000e+00 5.742446e-01 1.000000e+00
166 1 2.500000e-06 2.500000e-06 0.000000e+00 1.000000e+00 5.736831e-01 -1.000000e+00
167 1 3.000000e-06 2.500000e-06 0.000000e+00 1.000000e+00 5.741738e-01 1.000000e+00
168 1 3.500000e-06 2.500000e-06 0.000000e+00 1.000000e+00 5.740897e-01 -1.000000e+00
169 1 4.000000e-06 2.500000e-06 0.000000e+00 1.000000e+00 5.744578e-01 1.000000e+00
170 1 4.500000e-06 2.500000e-06 0.000000e+00 1.000000e+00 5.744072e-01 -1.000000e+00
171 1 5.000000e-06 2.500000e-06 0.000000e+00 1.000000e+00 5.745685e-01 1.000000e+00
172 1 5.500000e-06 2.500000e-06 0.000000e+00 1.000000e+00 5.747857e-01 -1.000000e+00
173 1 6.000000e-06 2.500000e-06 0.000000e+00 1.000000e+00 5.746910e-01 1.000000e+00
174 1 6.500000e-06 2.500000e-06 0.000000e+00 1.000000e+00 5.747230e-01 -1.000000e+00
175 1 7.000000e-06 2.500000e-06 0.000000e+00 1.000000e+00 5.744739e-01 1.000000e+00
176 1 7.500000e-06 2.500000e-06 0.000000e+00 1.000000e+00 5.748506e-01 -1.000000e+00
177 1 8.000000e-06 2.500000e-06 0.000000e+00 1.000000e+00 5.749389e-01 1.000000e+00
178 1 8.500000e-06 2.500000e-06 0.000000e+00 1.000000e+00 5.750403e-01 -1.000000e+00
179 1 9.000000e-06 2.500000e-06 0.000000e+00 1.000000e+00 5.746446e-01 1.000000e+00
180 1 9.500000e-06 2.500000e-06 0.000000e+00 1.000000e+00 5.750924e-01 -1.000000e+00
181 1 1.000000e-05 2.500000e-06 0.000000e+00 1.000000e+00 5.742427e-01 1.000000e+00
182 1 1.050000e-05 2.500000e-06 0.000000e+00 1.000000e+00 5.751823e-01 -1.000000e+00
183 1 1.100000e-05 2.500000e-06 0.000000e+00 1.000000e+00 5.749678e-01 1.000000e+00
184 1 1.150000e-05 2.500000e-06 0.000000e+00 1.000000e+00 5.750350e-01 -1.000000e+00
185 1 1.200000e-05 2.500000e-06 0.000000e+00 1.000000e+00 5.761677e-01 1.000000e+00
186 1 1.250000e-05 2.500000e-06 0.000000e+00 1.000000e+00 5.751686e-01 -1.000000e+00
187 1 1.300000e-05 2.500000e-06 0.000000e+00 1.000000e+00 5.756450e-01 1.000000e+00
188 1 1.350000e-05 2.500000e-06 0.000000e+00 1.000000e+00 5.751892e-01 -1.000000e+00
189 1 1.400000e-05 2.500000e-06 0.000000e+00 1.000000e+00 5.750456e-01 1.000000e+00
190 1 1.450000e-05 2.500000e-06 0.000000e+00 1.000000e+00 5.746561e-01 -1.000000e+00
191 1 1.500000e-05 2.500000e-06 0.000000e+00 1.000000e+00 5.748896e-01 1.000000e+00
192 1 1.550000e-05 2.500000e-06 0.000000e+00 1.000000e+00 8.112813e-01 -1.000000e+00
193 1 0.000000e+00 3.000000e-06 0.000000e+00 1.000000e+00 8.121313e-01 -1.000000e+00
194 1 5.000000e-07 3.000000e-06 0.000000e+00 1.000000e+00 5.740909e-01 1.000000e+00
195 1 1.000000e-06 3.000000e-06 0.000000e+00 1.000000e+00 5.742894e-01 -1.000000e+00
196 1 1.500000e-06 3.000000e-06 0.000000e+00 1.000000e+00 5.743816e-01 1.000000e+00
197 1 2.000000e-06 3.000000e-06 0.000000e+00 1.000000e+00 5.736570e-01 -1.000000e+00
198 1 2.500000e-06 3.000000e-06 0.000000e+00 1.000000e+00 5.736594e-01 1.000000e+00
199 1 3.000000e-06 3.000000e-06 0.000000e+00 1.000000e+00 5.741447e-01 -1.000000e+00
200 1 3.500000e-06 3.000000e-06 0.000000e+00 1.000000e+00 5.742770e-01 1.000000e+00
201 1 4.000000e-06 3.000000e-06 0.000000e+00 1.000000e+00 5.740464e-01 -1.000000e+00
202 1 4.500000e-06 3.000000e-06 0.000000e+00 1.000000e+00 5.744585e-01 1.000000e+00
203 1 5.000000e-06 3.000000e-06 0.000000e+00 1.000000e+00 5.751565e-01 -1.000000e+00
204 1 5.500000e-06 3.000000e-06 0.000000e+00 1.000000e+00 5.748157e-01 1.000000e+00
205 1 6.000000e-06 3.000000e-06 0.000000e+00 1.000000e+00 5.747485e-01 -1.000000e+00
206 1 6.500000e-06 3.000000e-06 0.000000e+00 1.000000e+00 5.749369e-01 1.000000e+00
207 1 7.000000e-06 3.000000e-06 0.000000e+00 1.000000e+00 5.753173e-01 -1.000000e+00
208 1 7.500000e-06 3.000000e-06 0.000000e+00 1.000000e+00 5.741529e-01 1.000000e+00
209 1 8.000000e-06 3.000000e-06 0.000000e+00 1.000000e+00 5.733875e-01 -1.000000e+00
210 1 8.500000e-06 3.000000e-06 0.000000e+00 1.000000e+00 5.735585e-01 1.000000e+00
211 1 9.000000e-06 3.000000e-06 0.000000e+00 1.000000e+00 5.735433e-01 -1.000000e+00
212 1 9.500000e-06 3.000000e-06 0.000000e+00 1.000000e+00 5.745401e-01 1.000000e+00
213 1 1.000000e-05 3.000000e-06 0.000000e+00 1.000000e+00 5.735457e-01 -1.000000e+00
214 1 1.050000e-05 3.000000e-06 0.000000e+00 1.000000e+00 5.742669e-01 1.000000e+00
215 1 1.100000e-05 3.000000e-06 0.000000e+00 1.000000e+00 5.756720e-01 -1.000000e+00
216 1 1.150000e-05 3.000000e-06 0.000000e+00 1.000000e+00 5.759184e-01 1.000000e+00
217 1 1.200000e-05 3.000000e-06 0.000000e+00 1.000000e+00 5.744860e-01 -1.000000e+00
218 1 1.250000e-05 3.000000e-06 0.000000e+00 1.000000e+00 5.747620e-01 1.000000e+00
219 1 1.300000e-05 3.000000e-06 0.000000e+00 1.000000e+00 5.751409e-01 -1.000000e+00
220 1 1.350000e-05 3.000000e-06 0.000000e+00 1.000000e+00 5.750428e-01 1.000000e+00
221 1 1.400000e-05 3.000000e-06 0.000000e+00 1.000000e+00 5.748774e-01 -1.000000e+00
222 1 1.450000e-05 3.000000e-06 0.000000e+00 1.000000e+00 5.750444e-01 1.000000e+00
223 1 1.500000e-05 3.000000e-06 0.000000e+00 1.000000e+00 5.749635e-01 -1.000000e+00
224 1 1.550000e-05 3.000000e-06 0.000000e+00 1.000000e+00 8.127008e-01 1.000000e+00
225 1 0.000000e+00 3.500000e-06 0.000000e+00 1.000000e+00 8.118228e-01 1.000000e+00
226 1 5.000000e-07 3.500000e-06 0.000000e+00 1.000000e+00 5.740455e-01 -1.000000e+00
227 1 1.000000e-06 3.500000e-06 0.000000e+00 1.000000e+00 5.740445e-01 1.000000e+00
228 1 1.500000e-06 3.500000e-06 0.000000e+00 1.000000e+00 5.740885e-01 -1.000000e+00
229 1 2.000000e-06 3.500000e-06 0.000000e+00 1.000000e+00 5.738614e-01 1.000000e+00
230 1 2.500000e-06 3.500000e-06 0.000000e+00 1.000000e+00 5.738045e-01 -1.000000e+00
231 1 3.000000e-06 3.500000e-06 0.000000e+00 1.000000e+00 5.738988e-01 1.000000e+00
232 1 3.500000e-06 3.500000e-06 0.000000e+00 1.000000e+00 5.739150e-01 -1.000000e+00
233 1 4.000000e-06 3.500000e-06 0.000000e+00 1.000000e+00 5.736216e-01 1.000000e+00
234 1 4.500000e-06 3.500000e-06 0.000000e+00 1.000000e+00 5.724351e-01 -1.000000e+00
235 1 5.000000e-06 3.500000e-06 0.000000e+00 1.000000e+00 5.735224e-01 1.000000e+00
236 1 5.500000e-06 3.500000e-06 0.000000e+00 1.000000e+00 5.746961e-01 -1.000000e+00
237 1 6.000000e-06 3.500000e-06 0.000000e+00 1.000000e+00 5.740892e-01 1.000000e+00
238 1 6.500000e-06 3.500000e-06 0.000000e+00 1.000000e+00 5.740915e-01 -1.000000e+00
239 1 7.000000e-06 3.500000e-06 0.000000e+00 1.000000e+00 5.740889e-01 1.000000e+00
240 1 7.500000e-06 3.500000e-06 0.000000e+00 1.000000e+00 5.735552e-01 -1.000000e+00
241 1 8.000000e-06 3.500000e-06 0.000000e+00 1.000000e+00 5.741394e-01 1.000000e+00
242 1 8.500000e-06 3.500000e-06 0.000000e+00 1.000000e+00 5.734691e-01 -1.000000e+00
243 1 9.000000e-06 3.500000e-06 0.000000e+00 1.000000e+00 5.744224e-01 1.000000e+00
244 1 9.500000e-06 3.500000e-06 0.000000e+00 1.000000e+00 5.736426e-01 -1.000000e+00
245 1 1.000000e-05 3.500000e-06 0.000000e+00 1.000000e+00 5.734548e-01 1.000000e+00
246 1 1.050000e-05 3.500000e-06 0.000000e+00 1.000000e+00 5.728192e-01 -1.000000e+00
247 1 1.100000e-05 3.500000e-06 0.000000e+00 1.000000e+00 5.739395e-01 1.000000e+00
248 1 1.150000e-05 3.500000e-06 0.000000e+00 1.000000e+00 5.747716e-01 -1.000000e+00
249 1 1.200000e-05 3.500000e-06 0.000000e+00 1.000000e+00 5.740449e-01 1.000000e+00
250 1 1.250000e-05 3.500000e-06 0.000000e+00 1.000000e+00 5.742351e-01 -1.000000e+00
251 1 1.300000e-05 3.500000e-06 0.000000e+00 1.000000e+00 5.742196e-01 1.000000e+00
252 1 1.350000e-05 3.500000e-06 0.000000e+00 1.000000e+00 5.739695e-01 -1.000000e+00
253 1 1.400000e-05 3.500000e-06 0.000000e+00 1.000000e+00 5.735765e-01 1.000000e+00
254 1 1.450000e-05 3.500000e-06 0.000000e+00 1.000000e+00 5.736378e-01 -1.000000e+00
255 1 1.500000e-05 3.500000e-06 0.000000e+00 1.000000e+00 5.735304e-01 1.000000e+00
256 1 1.550000e-05 3.500000e-06 0.000000e+00 1.000000e+00 8.117819e-01 -1.000000e+00
257 1 0.000000e+00 4.000000e-06 0.000000e+00 1.000000e+00 8.118887e-01 -1.000000e+00
258 1 5.000000e-07 4.000000e-06 0.000000e+00 1.000000e+00 5.740904e-01 1.000000e+00
259 1 1.000000e-06 4.000000e-06 0.000000e+00 1.000000e+00 5.740895e-01 -1.000000e+00
260 1 1.500000e-06 4.000000e-06 0.000000e+00 1.000000e+00 5.741774e-01 1.000000e+00
261 1 2.000000e-06 4.000000e-06 0.000000e+00 1.000000e+00 5.740610e-01 -1.000000e+00
262 1 2.500000e-06 4.000000e-06 0.000000e+00 1.000000e+00 5.741386e-01 1.000000e+00
263 1 3.000000e-06 4.000000e-06 0.000000e+00 1.000000e+00 5.746241e-01 -1.000000e+00
264 1 3.500000e-06 4.000000e-06 0.000000e+00 1.000000e+00 5.747330e-01 1.000000e+00
265 1 4.000000e-06 4.000000e-06 0.000000e+00 1.000000e+00 5.744333e-01 -1.000000e+00
266 1 4.500000e-06 4.000000e-06 0.000000e+00 1.000000e+00 5.752472e-01 1.000000e+00
267 1 5.000000e-06 4.000000e-06 0.000000e+00 1.000000e+00 5.749769e-01 -1.000000e+00
268 1 5.500000e-06 4.000000e-06 0.000000e+00 1.000000e+00 5.746837e-01 1.000000e+00
269 1 6.000000e-06 4.000000e-06 0.000000e+00 1.000000e+00 5.747817e-01 -1.000000e+00
270 1 6.500000e-06 4.000000e-06 0.000000e+00 1.000000e+00 5.740459e-01 1.000000e+00
271 1 7.000000e-06 4.000000e-06 0.000000e+00 1.000000e+00 5.745165e-01 -1.000000e+00
272 1 7.500000e-06 4.000000e-06 0.000000e+00 1.000000e+00 5.746156e-01 1.000000e+00
273 1 8.000000e-06 4.000000e-06 0.000000e+00 1.000000e+00 5.744742e-01 -1.000000e+00
274 1 8.500000e-06 4.000000e-06 0.000000e+00 1.000000e+00 5.741281e-01 1.000000e+00
275 1 9.000000e-06 4.000000e-06 0.000000e+00 1.000000e+00 5.742770e-01 -1.000000e+00
276 1 9.500000e-06 4.000000e-06 0.000000e+00 1.000000e+00 5.740472e-01 1.000000e+00
277 1 1.000000e-05 4.000000e-06 0.000000e+00 1.000000e+00 5.740464e-01 -1.000000e+00
278 1 1.050000e-05 4.000000e-06 0.000000e+00 1.000000e+00 5.739881e-01 1.000000e+00
279 1 1.100000e-05 4.000000e-06 0.000000e+00 1.000000e+00 5.739098e-01 -1.000000e+00
280 1 1.150000e-05 4.000000e-06 0.000000e+00 1.000000e+00 5.741275e-01 1.000000e+00
281 1 1.200000e-05 4.000000e-06 0.000000e+00 1.000000e+00 5.744724e-01 -1.000000e+00
282 1 1.250000e-05 4.000000e-06 0.000000e+00 1.000000e+00 5.744257e-01 1.000000e+00
283 1 1.300000e-05 4.000000e-06 0.000000e+00 1.000000e+00 5.743266e-01 -1.000000e+00
284 1 1.350000e-05 4.000000e-06 0.000000e+00 1.000000e+00 5.741001e-01 1.000000e+00
285 1 1.400000e-05 4.000000e-06 0.000000e+00 1.000000e+00 5.742501e-01 -1.000000e+00
286 1 1.450000e-05 4.000000e-06 0.000000e+00 1.000000e+00 5.741916e-01 1.000000e+00
287 1 1.500000e-05 4.000000e-06 0.000000e+00 1.000000e+00 5.741441e-01 -1.000000e+00
288 1 1.550000e-05 4.000000e-06 0.000000e+00 1.000000e+00 8.119606e-01 1.000000e+00
289 1 0.000000e+00 4.500000e-06 0.000000e+00 1.000000e+00 8.116525e-01 1.000000e+00
290 1 5.000000e-07 4.500000e-06 0.000000e+00 1.000000e+00 5.740937e-01 -1.000000e+00
291 1 1.000000e-06 4.500000e-06 0.000000e+00 1.000000e+00 5.740927e-01 1.000000e+00
292 1 1.500000e-06 4.500000e-06 0.000000e+00 1.000000e+00 5.740936e-01 -1.000000e+00
293 1 2.000000e-06 4.500000e-06 0.000000e+00 1.000000e+00 5.741996e-01 1.000000e+00
294 1 2.500000e-06 4.500000e-06 0.000000e+00 1.000000e+00 5.739611e-01 -1.000000e+00
295 1 3.000000e-06 4.500000e-06 0.000000e+00 1.000000e+00 5.749563e-01 1.000000e+00
296 1 3.500000e-06 4.500000e-06 0.000000e+00 1.000000e+00 5.745179e-01 -1.000000e+00
297 1 4.000000e-06 4.500000e-06 0.000000e+00 1.000000e+00 5.744465e-01 1.000000e+00
298 1 4.500000e-06 4.500000e-06 0.000000e+00 1.000000e+00 5.735726e-01 -1.000000e+00
299 1 5.000000e-06 4.500000e-06 0.000000e+00 1.000000e+00 5.744603e-01 1.000000e+00
300 1 5.500000e-06 4.500000e-06 0.000000e+00 1.000000e+00 5.743159e-01 -1.000000e+00
301 1 6.000000e-06 4.500000e-06 0.000000e+00 1.000000e+00 5.739862e-01 1.000000e+00
302 1 6.500000e-06 4.500000e-06 0.000000e+00 1.000000e+00 5.741376e-01 -1.000000e+00
303 1 7.000000e-06 4.500000e-06 0.000000e+00 1.000000e+00 5.740881e-01 1.000000e+00
304 1 7.500000e-06 4.500000e-06 0.000000e+00 1.000000e+00 5.742199e-01 -1.000000e+00
305 1 8.000000e-06 4.500000e-06 0.000000e+00 1.000000e+00 5.744187e-01 1.000000e+00
306 1 8.500000e-06 4.500000e-06 0.000000e+00 1.000000e+00 5.743673e-01 -1.000000e+00
307 1 9.000000e-06 4.500000e-06 0.000000e+00 1.000000e+00 5.740445e-01 1.000000e+00
308 1 9.500000e-06 4.500000e-06 0.000000e+00 1.000000e+00 5.742350e-01 -1.000000e+00
309 1 1.000000e-05 4.500000e-06 0.000000e+00 1.000000e+00 5.739108e-01 1.000000e+00
310 1 1.050000e-05 4.500000e-06 0.000000e+00 1.000000e+00 5.742202e-01 -1.000000e+00
311 1 1.100000e-05 4.500000e-06 0.000000e+00 1.000000e+00 5.738733e-01 1.000000e+00
312 1 1.150000e-05 4.500000e-06 0.000000e+00 1.000000e+00 5.739859e-01 -1.000000e+00
313 1 1.200000e-05 4.500000e-06 0.000000e+00 1.000000e+00 5.740902e-01 1.000000e+00
314 1 1.250000e-05 4.500000e-06 0.000000e+00 1.000000e+00 5.743665e-01 -1.000000e+00
315 1 1.300000e-05 4.500000e-06 0.000000e+00 1.000000e+00 5.742500e-01 1.000000e+00
316 1 1.350000e-05 4.500000e-06 0.000000e+00 1.000000e+00 5.739885e-01 -1.000000e+00
317 1 1.400000e-05 4.500000e-06 0.000000e+00 1.000000e+00 5.736319e-01 1.000000e+00
318 1 1.450000e-05 4.500000e-06 0.000000e+00 1.000000e+00 5.739384e-01 -1.000000e+00
319 1 1.500000e-05 4.500000e-06 0.000000e+00 1.000000e+00 5.743953e-01 1.000000e+00
320 1 1.550000e-05 4.500000e-06 0.000000e+00 1.000000e+00 8.121886e-01 -1.000000e+00
321 1 0.000000e+00 5.000000e-06 0.000000e+00 1.000000e+00 8.118891e-01 -1.000000e+00
322 1 5.000000e-07 5.000000e-06 0.000000e+00 1.000000e+00 5.740885e-01 1.000000e+00
323 1 1.000000e-06 5.000000e-06 0.000000e+00 1.000000e+00 5.740893e-01 -1.000000e+00
324 1 1.500000e-06 5.000000e-06 0.000000e+00 1.000000e+00 5.739886e-01 1.000000e+00
325 1 2.000000e-06 5.000000e-06 0.000000e+00 1.000000e+00 5.740085e-01 -1.000000e+00
326 1 2.500000e-06 5.000000e-06 0.000000e+00 1.000000e+00 5.740483e-01 1.000000e+00
327 1 3.000000e-06 5.000000e-06 0.000000e+00 1.000000e+00 5.744648e-01 -1.000000e+00
328 1 3.500000e-06 5.000000e-06 0.000000e+00 1.000000e+00 5.747061e-01 1.000000e+00
329 1 4.000000e-06 5.000000e-06 0.000000e+00 1.000000e+00 5.747352e-01 -1.000000e+00
330 1 4.500000e-06 5.000000e-06 0.000000e+00 1.000000e+00 5.732863e-01 1.000000e+00
331 1 5.000000e-06 5.000000e-06 0.000000e+00 1.000000e+00 5.739041e-01 -1.000000e+00
332 1 5.500000e-06 5.000000e-06 0.000000e+00 1.000000e+00 5.744233e-01 1.000000e+00
333 1 6.000000e-06 5.000000e-06 0.000000e+00 1.000000e+00 5.741628e-01 -1.000000e+00
334 1 6.500000e-06 5.000000e-06 0.000000e+00 1.000000e+00 5.740892e-01 1.000000e+00
335 1 7.000000e-06 5.000000e-06 0.000000e+00 1.000000e+00 5.740469e-01 -1.000000e+00
336 1 7.500000e-06 5.000000e-06 0.000000e+00 1.000000e+00 5.740908e-01 1.000000e+00
337 1 8.000000e-06 5.000000e-06 0.000000e+00 1.000000e+00 5.743274e-01 -1.000000e+00
338 1 8.500000e-06 5.000000e-06 0.000000e+00 1.000000e+00 5.744276e-01 1.000000e+00
339 1 9.000000e-06 5.000000e-06 0.000000e+00 1.000000e+00 5.740463e-01 -1.000000e+00
340 1 9.500000e-06 5.000000e-06 0.000000e+00 1.000000e+00 5.744246e-01 1.000000e+00
341 1 1.000000e-05 5.000000e-06 0.000000e+00 1.000000e+00 5.743243e-01 -1.000000e+00
342 1 1.050000e-05 5.000000e-06 0.000000e+00 1.000000e+00 5.743708e-01 1.000000e+00
343 1 1.100000e-05 5.000000e-06 0.000000e+00 1.000000e+00 5.744729e-01 -1.000000e+00
344 1 1.150000e-05 5.000000e-06 0.000000e+00 1.000000e+00 5.740991e-01 1.000000e+00
345 1 1.200000e-05 5.000000e-06 0.000000e+00 1.000000e+00 5.740460e-01 -1.000000e+00
346 1 1.250000e-05 5.000000e-06 0.000000e+00 1.000000e+00 5.743258e-01 1.000000e+00
347 1 1.300000e-05 5.000000e-06 0.000000e+00 1.000000e+00 5.745695e-01 -1.000000e+00
348 1 1.350000e-05 5.000000e-06 0.000000e+00 1.000000e+00 5.734654e-01 1.000000e+00
349 1 1.400000e-05 5.000000e-06 0.000000e+00 1.000000e+00 5.732574e-01 -1.000000e+00
350 1 1.450000e-05 5.000000e-06 0.000000e+00 1.000000e+00 5.736898e-01 1.000000e+00
351 1 1.500000e-05 5.000000e-06 0.000000e+00 1.000000e+00 5.738252e-01 -1.000000e+00
352 1 1.550000e-05 5.000000e-06 0.000000e+00 1.000000e+00 8.115501e-01 1.000000e+00
353 1 0.000000e+00 5.500000e-06 0.000000e+00 1.000000e+00 8.115034e-01 1.000000e+00
354 1 5.000000e-07 5.500000e-06 0.000000e+00 1.000000e+00 5.736789e-01 -1.000000e+00