ITEM: TIMESTEP
2
ITEM: NUMBER OF ATOMS
16384
ITEM: BOX BOUNDS pp pp pp
0.0 1.600000e-05
0.0 1.600000e-05
0.0 8.000000e-06
ITEM: ATOMS id type x y z crack plastic psi
1 1 0.000000e+00 0.000000e+00 0.000000e+00 1.888157e-04 2.503547e-01 9.980469e-01
2 1 5.000000e-07 0.000000e+00 0.000000e+00 1.888160e-04 2.992563e-01 9.980469e-01
3 1 1.000000e-06 0.000000e+00 0.000000e+00 1.887424e-04 2.454642e-01 -1.001953e+00
4 1 1.500000e-06 0.000000e+00 0.000000e+00 1.810891e-04 2.023827e-01 9.980469e-01
5 1 2.000000e-06 0.000000e+00 0.000000e+00 1.810760e-04 2.021110e-01 -1.001953e+00
6 1 2.500000e-06 0.000000e+00 0.000000e+00 1.810771e-04 1.806151e-01 9.980469e-01
7 1 3.000000e-06 0.000000e+00 0.000000e+00 1.810885e-04 2.217407e-01 -1.001953e+00
8 1 3.500000e-06 0.000000e+00 0.000000e+00 1.810823e-04 2.216146e-01 9.980469e-01
9 1 4.000000e-06 0.000000e+00 0.000000e+00 1.810769e-04 2.215003e-01 -1.001953e+00
10 1 4.500000e-06 0.000000e+00 0.000000e+00 1.810895e-04 1.569579e-01 9.980469e-01
11 1 5.000000e-06 0.000000e+00 0.000000e+00 1.888162e-04 2.234574e-01 -1.001953e+00
12 1 5.500000e-06 0.000000e+00 0.000000e+00 1.888161e-04 2.055496e-01 9.980469e-01
13 1 6.000000e-06 0.000000e+00 0.000000e+00 1.810809e-04 1.752456e-01 -1.001953e+00
14 1 6.500000e-06 0.000000e+00 0.000000e+00 1.810768e-04 2.214986e-01 9.980469e-01
15 1 7.000000e-06 0.000000e+00 0.000000e+00 1.888160e-04 2.903832e-01 -1.001953e+00
16 1 7.500000e-06 0.000000e+00 0.000000e+00 1.810761e-04 2.214816e-01 9.980469e-01
17 1 8.000000e-06 0.000000e+00 0.000000e+00 1.808531e-04 1.772587e-01 9.980469e-01
18 1 8.500000e-06 0.000000e+00 0.000000e+00 1.810763e-04 2.349100e-01 -1.001953e+00
19 1 9.000000e-06 0.000000e+00 0.000000e+00 1.811008e-04 2.125819e-01 9.980469e-01
20 1 9.500000e-06 0.000000e+00 0.000000e+00 1.810949e-04 1.926250e-01 -1.001953e+00
21 1 1.000000e-05 0.000000e+00 0.000000e+00 1.888159e-04 2.782698e-01 9.980469e-01
22 1 1.050000e-05 0.000000e+00 0.000000e+00 1.887449e-04 2.361487e-01 -1.001953e+00
23 1 1.100000e-05 0.000000e+00 0.000000e+00 1.888156e-04 3.023971e-01 9.980469e-01
24 1 1.150000e-05 0.000000e+00 0.000000e+00 1.888158e-04 3.026400e-01 -1.001953e+00
25 1 1.200000e-05 0.000000e+00 0.000000e+00 1.887418e-04 2.340624e-01 9.980469e-01
26 1 1.250000e-05 0.000000e+00 0.000000e+00 1.887421e-04 2.162085e-01 -1.001953e+00
27 1 1.300000e-05 0.000000e+00 0.000000e+00 1.888158e-04 2.502111e-01 9.980469e-01
28 1 1.350000e-05 0.000000e+00 0.000000e+00 1.887411e-04 2.260401e-01 -1.001953e+00
29 1 1.400000e-05 0.000000e+00 0.000000e+00 1.810768e-04 2.076473e-01 9.980469e-01
30 1 1.450000e-05 0.000000e+00 0.000000e+00 1.810702e-04 2.019835e-01 -1.001953e+00
31 1 1.500000e-05 0.000000e+00 0.000000e+00 1.810796e-04 2.255687e-01 9.980469e-01
32 1 1.550000e-05 0.000000e+00 0.000000e+00 1.810866e-04 2.714325e-01 -1.001953e+00
33 1 0.000000e+00 5.000000e-07 0.000000e+00 1.888159e-04 2.102549e-01 -1.001953e+00
34 1 5.000000e-07 5.000000e-07 0.000000e+00 1.884984e-04 1.252233e-01 -1.001953e+00
35 1 1.000000e-06 5.000000e-07 0.000000e+00 1.655862e-04 5.810255e-02 9.980469e-01
36 1 1.500000e-06 5.000000e-07 0.000000e+00 1.730937e-04 8.118054e-02 -1.001953e+00
37 1 2.000000e-06 5.000000e-07 0.000000e+00 1.730929e-04 7.830411e-02 9.980469e-01
38 1 2.500000e-06 5.000000e-07 0.000000e+00 1.733202e-04 1.042921e-01 -1.001953e+00
39 1 3.000000e-06 5.000000e-07 0.000000e+00 1.728742e-04 4.959335e-02 9.980469e-01
40 1 3.500000e-06 5.000000e-07 0.000000e+00 1.733293e-04 1.099498e-01 -1.001953e+00
41 1 4.000000e-06 5.000000e-07 0.000000e+00 1.806220e-04 1.141271e-01 9.980469e-01
42 1 4.500000e-06 5.000000e-07 0.000000e+00 1.880653e-04 1.025622e-01 -1.001953e+00
43 1 5.000000e-06 5.000000e-07 0.000000e+00 1.803978e-04 7.850864e-02 9.980469e-01
44 1 5.500000e-06 5.000000e-07 0.000000e+00 1.654980e-04 2.425743e-02 -1.001953e+00
45 1 6.000000e-06 5.000000e-07 0.000000e+00 1.803945e-04 7.843760e-02 9.980469e-01
46 1 6.500000e-06 5.000000e-07 0.000000e+00 1.887435e-04 1.806997e-01 -1.001953e+00
47 1 7.000000e-06 5.000000e-07 0.000000e+00 1.888159e-04 2.048855e-01 9.980469e-01
48 1 7.500000e-06 5.000000e-07 0.000000e+00 1.887462e-04 1.876131e-01 -1.001953e+00
49 1 8.000000e-06 5.000000e-07 0.000000e+00 1.806289e-04 1.204356e-01 -1.001953e+00
50 1 8.500000e-06 5.000000e-07 0.000000e+00 1.810985e-04 1.687799e-01 9.980469e-01
51 1 9.000000e-06 5.000000e-07 0.000000e+00 1.733525e-04 1.104084e-01 -1.001953e+00
52 1 9.500000e-06 5.000000e-07 0.000000e+00 1.810907e-04 1.741763e-01 9.980469e-01
53 1 1.000000e-05 5.000000e-07 0.000000e+00 1.733366e-04 1.049064e-01 -1.001953e+00
54 1 1.050000e-05 5.000000e-07 0.000000e+00 1.810710e-04 1.732075e-01 9.980469e-01
55 1 1.100000e-05 5.000000e-07 0.000000e+00 1.887443e-04 1.923679e-01 -1.001953e+00
56 1 1.150000e-05 5.000000e-07 0.000000e+00 1.882891e-04 1.313313e-01 9.980469e-01
57 1 1.200000e-05 5.000000e-07 0.000000e+00 1.655810e-04 6.480611e-02 -1.001953e+00
58 1 1.250000e-05 5.000000e-07 0.000000e+00 1.885771e-04 1.519925e-01 9.980469e-01
59 1 1.300000e-05 5.000000e-07 0.000000e+00 1.885893e-04 1.990750e-01 -1.001953e+00
60 1 1.350000e-05 5.000000e-07 0.000000e+00 1.885142e-04 1.572324e-01 9.980469e-01
61 1 1.400000e-05 5.000000e-07 0.000000e+00 1.808516e-04 1.333521e-01 -1.001953e+00
62 1 1.450000e-05 5.000000e-07 0.000000e+00 1.885173e-04 1.573487e-01 9.980469e-01
63 1 1.500000e-05 5.000000e-07 0.000000e+00 1.888157e-04 2.104273e-01 -1.001953e+00
64 1 1.550000e-05 5.000000e-07 0.000000e+00 1.810906e-04 2.217819e-01 9.980469e-01
65 1 0.000000e+00 1.000000e-06 0.000000e+00 1.810696e-04 2.019687e-01 9.980469e-01
66 1 5.000000e-07 1.000000e-06 0.000000e+00 1.810597e-04 1.674801e-01 -1.001953e+00
67 1 1.000000e-06 1.000000e-06 0.000000e+00 1.728686e-04 5.495567e-02 -1.001953e+00
68 1 1.500000e-06 1.000000e-06 0.000000e+00 1.655867e-04 5.811192e-02 9.980469e-01
69 1 2.000000e-06 1.000000e-06 0.000000e+00 1.730228e-04 4.772186e-02 -1.001953e+00
70 1 2.500000e-06 1.000000e-06 0.000000e+00 1.728702e-04 4.950720e-02 9.980469e-01
71 1 3.000000e-06 1.000000e-06 0.000000e+00 1.578236e-04 6.293042e-05 -1.001953e+00
72 1 3.500000e-06 1.000000e-06 0.000000e+00 1.806275e-04 1.142462e-01 9.980469e-01
73 1 4.000000e-06 1.000000e-06 0.000000e+00 1.810759e-04 1.751388e-01 -1.001953e+00
74 1 4.500000e-06 1.000000e-06 0.000000e+00 1.888161e-04 2.114200e-01 -1.001953e+00
75 1 5.000000e-06 1.000000e-06 0.000000e+00 1.887431e-04 1.991258e-01 9.980469e-01
76 1 5.500000e-06 1.000000e-06 0.000000e+00 1.810759e-04 1.751375e-01 -1.001953e+00
77 1 6.000000e-06 1.000000e-06 0.000000e+00 1.810750e-04 1.918140e-01 9.980469e-01
78 1 6.500000e-06 1.000000e-06 0.000000e+00 1.810441e-04 1.107767e-01 9.980469e-01
79 1 7.000000e-06 1.000000e-06 0.000000e+00 1.655013e-04 2.438670e-02 -1.001953e+00
80 1 7.500000e-06 1.000000e-06 0.000000e+00 1.655766e-04 4.119138e-02 -1.001953e+00
81 1 8.000000e-06 1.000000e-06 0.000000e+00 1.807672e-04 1.147541e-01 9.980469e-01
82 1 8.500000e-06 1.000000e-06 0.000000e+00 1.810706e-04 1.492018e-01 -1.001953e+00
83 1 9.000000e-06 1.000000e-06 0.000000e+00 1.810807e-04 1.622969e-01 9.980469e-01
84 1 9.500000e-06 1.000000e-06 0.000000e+00 1.888159e-04 2.264731e-01 -1.001953e+00
85 1 1.000000e-05 1.000000e-06 0.000000e+00 1.731030e-04 8.138679e-02 9.980469e-01
86 1 1.050000e-05 1.000000e-06 0.000000e+00 1.810843e-04 1.550208e-01 -1.001953e+00
87 1 1.100000e-05 1.000000e-06 0.000000e+00 1.810707e-04 1.626933e-01 9.980469e-01
88 1 1.150000e-05 1.000000e-06 0.000000e+00 1.808442e-04 1.429232e-01 -1.001953e+00
89 1 1.200000e-05 1.000000e-06 0.000000e+00 1.809925e-04 1.345114e-01 9.980469e-01
90 1 1.250000e-05 1.000000e-06 0.000000e+00 1.885891e-04 1.968214e-01 -1.001953e+00
91 1 1.300000e-05 1.000000e-06 0.000000e+00 1.883597e-04 1.411678e-01 9.980469e-01
92 1 1.350000e-05 1.000000e-06 0.000000e+00 1.808559e-04 1.395729e-01 -1.001953e+00
93 1 1.400000e-05 1.000000e-06 0.000000e+00 1.810645e-04 1.437869e-01 9.980469e-01
94 1 1.450000e-05 1.000000e-06 0.000000e+00 1.888062e-04 1.970540e-01 -1.001953e+00
95 1 1.500000e-05 1.000000e-06 0.000000e+00 1.887438e-04 1.862303e-01 9.980469e-01
96 1 1.550000e-05 1.000000e-06 0.000000e+00 1.888161e-04 2.754074e-01 -1.001953e+00
97 1 0.000000e+00 1.500000e-06 0.000000e+00 1.810749e-04 2.214556e-01 -1.001953e+00
98 1 5.000000e-07 1.500000e-06 0.000000e+00 1.810738e-04 1.800819e-01 9.980469e-01
99 1 1.000000e-06 1.500000e-06 0.000000e+00 1.810478e-04 1.108594e-01 9.980469e-01
100 1 1.500000e-06 1.500000e-06 0.000000e+00 1.887462e-04 1.992638e-01 -1.001953e+00
101 1 2.000000e-06 1.500000e-06 0.000000e+00 1.888160e-04 2.052204e-01 9.980469e-01
102 1 2.500000e-06 1.500000e-06 0.000000e+00 1.887447e-04 1.807518e-01 -1.001953e+00
103 1 3.000000e-06 1.500000e-06 0.000000e+00 1.810736e-04 1.566248e-01 9.980469e-01
104 1 3.500000e-06 1.500000e-06 0.000000e+00 1.810718e-04 1.565849e-01 -1.001953e+00
105 1 4.000000e-06 1.500000e-06 0.000000e+00 1.810918e-04 1.816257e-01 9.980469e-01
106 1 4.500000e-06 1.500000e-06 0.000000e+00 1.887231e-04 1.646878e-01 9.980469e-01
107 1 5.000000e-06 1.500000e-06 0.000000e+00 1.887415e-04 1.922689e-01 -1.001953e+00
108 1 5.500000e-06 1.500000e-06 0.000000e+00 1.810867e-04 1.569017e-01 9.980469e-01
109 1 6.000000e-06 1.500000e-06 0.000000e+00 1.809983e-04 1.340860e-01 -1.001953e+00
110 1 6.500000e-06 1.500000e-06 0.000000e+00 1.810643e-04 1.675837e-01 9.980469e-01
111 1 7.000000e-06 1.500000e-06 0.000000e+00 1.808523e-04 1.500666e-01 -1.001953e+00
112 1 7.500000e-06 1.500000e-06 0.000000e+00 1.885177e-04 1.732554e-01 9.980469e-01
113 1 8.000000e-06 1.500000e-06 0.000000e+00 1.888062e-04 1.897015e-01 -1.001953e+00
114 1 8.500000e-06 1.500000e-06 0.000000e+00 1.885086e-04 1.631751e-01 9.980469e-01
115 1 9.000000e-06 1.500000e-06 0.000000e+00 1.808738e-04 1.399209e-01 -1.001953e+00
116 1 9.500000e-06 1.500000e-06 0.000000e+00 1.882833e-04 1.311141e-01 9.980469e-01
117 1 1.000000e-05 1.500000e-06 0.000000e+00 1.730952e-04 8.381259e-02 -1.001953e+00
118 1 1.050000e-05 1.500000e-06 0.000000e+00 1.808476e-04 1.411759e-01 9.980469e-01
119 1 1.100000e-05 1.500000e-06 0.000000e+00 1.810723e-04 1.565977e-01 -1.001953e+00
120 1 1.150000e-05 1.500000e-06 0.000000e+00 1.730985e-04 8.388815e-02 9.980469e-01
121 1 1.200000e-05 1.500000e-06 0.000000e+00 1.887454e-04 2.097580e-01 -1.001953e+00
122 1 1.250000e-05 1.500000e-06 0.000000e+00 1.888160e-04 2.221065e-01 9.980469e-01
123 1 1.300000e-05 1.500000e-06 0.000000e+00 1.888159e-04 2.217972e-01 -1.001953e+00
124 1 1.350000e-05 1.500000e-06 0.000000e+00 1.887343e-04 1.908699e-01 9.980469e-01
125 1 1.400000e-05 1.500000e-06 0.000000e+00 1.810665e-04 1.636585e-01 -1.001953e+00
126 1 1.450000e-05 1.500000e-06 0.000000e+00 1.888156e-04 2.264585e-01 9.980469e-01
127 1 1.500000e-05 1.500000e-06 0.000000e+00 1.810719e-04 1.565876e-01 -1.001953e+00
128 1 1.550000e-05 1.500000e-06 0.000000e+00 1.888158e-04 2.902321e-01 9.980469e-01
129 1 0.000000e+00 2.000000e-06 0.000000e+00 1.810712e-04 2.213740e-01 9.980469e-01
130 1 5.000000e-07 2.000000e-06 0.000000e+00 1.810731e-04 1.566156e-01 -1.001953e+00
131 1 1.000000e-06 2.000000e-06 0.000000e+00 1.810755e-04 1.751301e-01 9.980469e-01
132 1 1.500000e-06 2.000000e-06 0.000000e+00 1.887501e-04 2.161157e-01 9.980469e-01
133 1 2.000000e-06 2.000000e-06 0.000000e+00 1.884985e-04 1.229583e-01 -1.001953e+00
134 1 2.500000e-06 2.000000e-06 0.000000e+00 1.810697e-04 1.681879e-01 9.980469e-01
135 1 3.000000e-06 2.000000e-06 0.000000e+00 1.888154e-04 2.104374e-01 -1.001953e+00
136 1 3.500000e-06 2.000000e-06 0.000000e+00 1.810800e-04 1.567633e-01 9.980469e-01
137 1 4.000000e-06 2.000000e-06 0.000000e+00 1.887417e-04 1.806405e-01 -1.001953e+00
138 1 4.500000e-06 2.000000e-06 0.000000e+00 1.883522e-04 1.444671e-01 -1.001953e+00
139 1 5.000000e-06 2.000000e-06 0.000000e+00 1.888158e-04 2.289631e-01 9.980469e-01
140 1 5.500000e-06 2.000000e-06 0.000000e+00 1.810758e-04 1.566746e-01 -1.001953e+00
141 1 6.000000e-06 2.000000e-06 0.000000e+00 1.888155e-04 2.052161e-01 9.980469e-01
142 1 6.500000e-06 2.000000e-06 0.000000e+00 1.888141e-04 1.910308e-01 -1.001953e+00
143 1 7.000000e-06 2.000000e-06 0.000000e+00 1.810843e-04 1.753154e-01 9.980469e-01
144 1 7.500000e-06 2.000000e-06 0.000000e+00 1.810844e-04 1.734950e-01 -1.001953e+00
145 1 8.000000e-06 2.000000e-06 0.000000e+00 1.885076e-04 1.631400e-01 9.980469e-01
146 1 8.500000e-06 2.000000e-06 0.000000e+00 1.888159e-04 2.105515e-01 -1.001953e+00
147 1 9.000000e-06 2.000000e-06 0.000000e+00 1.885137e-04 1.633504e-01 9.980469e-01
148 1 9.500000e-06 2.000000e-06 0.000000e+00 1.733238e-04 1.098300e-01 -1.001953e+00
149 1 1.000000e-05 2.000000e-06 0.000000e+00 1.885148e-04 1.640649e-01 9.980469e-01
150 1 1.050000e-05 2.000000e-06 0.000000e+00 1.810705e-04 1.620697e-01 -1.001953e+00
151 1 1.100000e-05 2.000000e-06 0.000000e+00 1.810739e-04 1.621503e-01 9.980469e-01
152 1 1.150000e-05 2.000000e-06 0.000000e+00 1.808488e-04 1.394232e-01 -1.001953e+00
153 1 1.200000e-05 2.000000e-06 0.000000e+00 1.810807e-04 1.622960e-01 9.980469e-01
154 1 1.250000e-05 2.000000e-06 0.000000e+00 1.887451e-04 1.807611e-01 -1.001953e+00
155 1 1.300000e-05 2.000000e-06 0.000000e+00 1.810767e-04 1.566936e-01 9.980469e-01
156 1 1.350000e-05 2.000000e-06 0.000000e+00 1.887422e-04 1.861751e-01 -1.001953e+00
157 1 1.400000e-05 2.000000e-06 0.000000e+00 1.887392e-04 1.860479e-01 9.980469e-01
158 1 1.450000e-05 2.000000e-06 0.000000e+00 1.885161e-04 1.573084e-01 -1.001953e+00
159 1 1.500000e-05 2.000000e-06 0.000000e+00 1.810694e-04 1.565308e-01 9.980469e-01
160 1 1.550000e-05 2.000000e-06 0.000000e+00 1.887462e-04 2.496139e-01 -1.001953e+00
161 1 0.000000e+00 2.500000e-06 0.000000e+00 1.810816e-04 2.350220e-01 -1.001953e+00
162 1 5.000000e-07 2.500000e-06 0.000000e+00 1.810965e-04 1.755547e-01 9.980469e-01
163 1 1.000000e-06 2.500000e-06 0.000000e+00 1.887462e-04 1.992636e-01 -1.001953e+00
164 1 1.500000e-06 2.500000e-06 0.000000e+00 1.888158e-04 2.248168e-01 -1.001953e+00
165 1 2.000000e-06 2.500000e-06 0.000000e+00 1.885884e-04 1.819830e-01 9.980469e-01
166 1 2.500000e-06 2.500000e-06 0.000000e+00 1.733237e-04 1.105079e-01 -1.001953e+00
167 1 3.000000e-06 2.500000e-06 0.000000e+00 1.887296e-04 1.729655e-01 9.980469e-01
168 1 3.500000e-06 2.500000e-06 0.000000e+00 1.810790e-04 1.622617e-01 -1.001953e+00
169 1 4.000000e-06 2.500000e-06 0.000000e+00 1.810732e-04 1.566166e-01 9.980469e-01
170 1 4.500000e-06 2.500000e-06 0.000000e+00 1.885168e-04 1.634779e-01 -1.001953e+00
171 1 5.000000e-06 2.500000e-06 0.000000e+00 1.887337e-04 1.916388e-01 -1.001953e+00
172 1 5.500000e-06 2.500000e-06 0.000000e+00 1.808560e-04 1.463886e-01 9.980469e-01
173 1 6.000000e-06 2.500000e-06 0.000000e+00 1.888137e-04 2.037698e-01 -1.001953e+00
174 1 6.500000e-06 2.500000e-06 0.000000e+00 1.888157e-04 2.180235e-01 9.980469e-01
175 1 7.000000e-06 2.500000e-06 0.000000e+00 1.885201e-04 1.704059e-01 -1.001953e+00
176 1 7.500000e-06 2.500000e-06 0.000000e+00 1.810883e-04 1.753963e-01 9.980469e-01
177 1 8.000000e-06 2.500000e-06 0.000000e+00 1.810830e-04 1.697714e-01 -1.001953e+00
178 1 8.500000e-06 2.500000e-06 0.000000e+00 1.810789e-04 1.857386e-01 9.980469e-01
179 1 9.000000e-06 2.500000e-06 0.000000e+00 1.808377e-04 1.248517e-01 -1.001953e+00
180 1 9.500000e-06 2.500000e-06 0.000000e+00 1.882863e-04 1.441819e-01 9.980469e-01
181 1 1.000000e-05 2.500000e-06 0.000000e+00 1.803902e-04 7.834060e-02 -1.001953e+00
182 1 1.050000e-05 2.500000e-06 0.000000e+00 1.810625e-04 1.648540e-01 9.980469e-01
183 1 1.100000e-05 2.500000e-06 0.000000e+00 1.810740e-04 1.732700e-01 -1.001953e+00
184 1 1.150000e-05 2.500000e-06 0.000000e+00 1.810762e-04 1.622014e-01 9.980469e-01
185 1 1.200000e-05 2.500000e-06 0.000000e+00 1.810814e-04 1.752515e-01 -1.001953e+00
186 1 1.250000e-05 2.500000e-06 0.000000e+00 1.810816e-04 1.752602e-01 9.980469e-01
187 1 1.300000e-05 2.500000e-06 0.000000e+00 1.809925e-04 1.406717e-01 -1.001953e+00
188 1 1.350000e-05 2.500000e-06 0.000000e+00 1.888158e-04 2.047070e-01 9.980469e-01
189 1 1.400000e-05 2.500000e-06 0.000000e+00 1.887401e-04 1.860775e-01 -1.001953e+00
190 1 1.450000e-05 2.500000e-06 0.000000e+00 1.808513e-04 1.462891e-01 9.980469e-01
191 1 1.500000e-05 2.500000e-06 0.000000e+00 1.810721e-04 1.800445e-01 -1.001953e+00
192 1 1.550000e-05 2.500000e-06 0.000000e+00 1.885119e-04 2.119810e-01 9.980469e-01
193 1 0.000000e+00 3.000000e-06 0.000000e+00 1.810718e-04 2.348087e-01 -1.001953e+00
194 1 5.000000e-07 3.000000e-06 0.000000e+00 1.808580e-04 1.464292e-01 9.980469e-01
195 1 1.000000e-06 3.000000e-06 0.000000e+00 1.810750e-04 1.801096e-01 -1.001953e+00
196 1 1.500000e-06 3.000000e-06 0.000000e+00 1.887500e-04 1.994237e-01 9.980469e-01
197 1 2.000000e-06 3.000000e-06 0.000000e+00 1.806157e-04 1.071755e-01 -1.001953e+00
198 1 2.500000e-06 3.000000e-06 0.000000e+00 1.807676e-04 1.074852e-01 9.980469e-01
199 1 3.000000e-06 3.000000e-06 0.000000e+00 1.810675e-04 1.692705e-01 -1.001953e+00
200 1 3.500000e-06 3.000000e-06 0.000000e+00 1.887405e-04 1.861057e-01 9.980469e-01
201 1 4.000000e-06 3.000000e-06 0.000000e+00 1.810791e-04 1.567457e-01 -1.001953e+00
202 1 4.500000e-06 3.000000e-06 0.000000e+00 1.810768e-04 1.566967e-01 9.980469e-01
203 1 5.000000e-06 3.000000e-06 0.000000e+00 1.888160e-04 2.237373e-01 -1.001953e+00
204 1 5.500000e-06 3.000000e-06 0.000000e+00 1.810865e-04 1.803505e-01 9.980469e-01
205 1 6.000000e-06 3.000000e-06 0.000000e+00 1.810688e-04 1.559764e-01 -1.001953e+00
206 1 6.500000e-06 3.000000e-06 0.000000e+00 1.887346e-04 1.799588e-01 9.980469e-01
207 1 7.000000e-06 3.000000e-06 0.000000e+00 1.888161e-04 2.283871e-01 -1.001953e+00
208 1 7.500000e-06 3.000000e-06 0.000000e+00 1.806406e-04 1.022089e-01 9.980469e-01
209 1 8.000000e-06 3.000000e-06 0.000000e+00 1.653612e-04 2.927501e-02 -1.001953e+00
210 1 8.500000e-06 3.000000e-06 0.000000e+00 1.803870e-04 7.826724e-02 9.980469e-01
211 1 9.000000e-06 3.000000e-06 0.000000e+00 1.805378e-04 7.634422e-02 -1.001953e+00
212 1 9.500000e-06 3.000000e-06 0.000000e+00 1.808403e-04 1.301548e-01 9.980469e-01
213 1 1.000000e-05 3.000000e-06 0.000000e+00 1.655797e-04 5.251310e-02 -1.001953e+00
214 1 1.050000e-05 3.000000e-06 0.000000e+00 1.806162e-04 9.048543e-02 9.980469e-01
215 1 1.100000e-05 3.000000e-06 0.000000e+00 1.810674e-04 1.676510e-01 9.980469e-01
216 1 1.150000e-05 3.000000e-06 0.000000e+00 1.888161e-04 2.351830e-01 -1.001953e+00
217 1 1.200000e-05 3.000000e-06 0.000000e+00 1.810499e-04 1.109061e-01 -1.001953e+00
218 1 1.250000e-05 3.000000e-06 0.000000e+00 1.808273e-04 9.883612e-02 9.980469e-01
219 1 1.300000e-05 3.000000e-06 0.000000e+00 1.810659e-04 1.619390e-01 -1.001953e+00
220 1 1.350000e-05 3.000000e-06 0.000000e+00 1.887389e-04 1.935044e-01 -1.001953e+00
221 1 1.400000e-05 3.000000e-06 0.000000e+00 1.810835e-04 1.919951e-01 9.980469e-01
222 1 1.450000e-05 3.000000e-06 0.000000e+00 1.810738e-04 1.867975e-01 9.980469e-01
223 1 1.500000e-05 3.000000e-06 0.000000e+00 1.887442e-04 1.991760e-01 -1.001953e+00
224 1 1.550000e-05 3.000000e-06 0.000000e+00 1.888160e-04 2.989239e-01 9.980469e-01
225 1 0.000000e+00 3.500000e-06 0.000000e+00 1.810768e-04 2.214978e-01 9.980469e-01
226 1 5.000000e-07 3.500000e-06 0.000000e+00 1.810739e-04 1.566334e-01 -1.001953e+00
227 1 1.000000e-06 3.500000e-06 0.000000e+00 1.810688e-04 1.565165e-01 9.980469e-01
228 1 1.500000e-06 3.500000e-06 0.000000e+00 1.810721e-04 1.621095e-01 -1.001953e+00
229 1 2.000000e-06 3.500000e-06 0.000000e+00 1.808447e-04 1.332001e-01 9.980469e-01
230 1 2.500000e-06 3.500000e-06 0.000000e+00 1.882921e-04 1.259560e-01 -1.001953e+00
231 1 3.000000e-06 3.500000e-06 0.000000e+00 1.883620e-04 1.616297e-01 9.980469e-01
232 1 3.500000e-06 3.500000e-06 0.000000e+00 1.885887e-04 1.880000e-01 -1.001953e+00
233 1 4.000000e-06 3.500000e-06 0.000000e+00 1.810805e-04 1.752362e-01 9.980469e-01
234 1 4.500000e-06 3.500000e-06 0.000000e+00 1.804012e-04 7.857918e-02 -1.001953e+00
235 1 5.000000e-06 3.500000e-06 0.000000e+00 1.810901e-04 1.754322e-01 9.980469e-01
236 1 5.500000e-06 3.500000e-06 0.000000e+00 1.888161e-04 2.234737e-01 -1.001953e+00
237 1 6.000000e-06 3.500000e-06 0.000000e+00 1.810762e-04 1.622019e-01 9.980469e-01
238 1 6.500000e-06 3.500000e-06 0.000000e+00 1.810905e-04 1.624951e-01 -1.001953e+00
239 1 7.000000e-06 3.500000e-06 0.000000e+00 1.810747e-04 1.621684e-01 9.980469e-01
240 1 7.500000e-06 3.500000e-06 0.000000e+00 1.733176e-04 9.422220e-02 -1.001953e+00
241 1 8.000000e-06 3.500000e-06 0.000000e+00 1.885198e-04 1.685926e-01 9.980469e-01
242 1 8.500000e-06 3.500000e-06 0.000000e+00 1.807578e-04 8.325632e-02 -1.001953e+00
243 1 9.000000e-06 3.500000e-06 0.000000e+00 1.888157e-04 2.046233e-01 9.980469e-01
244 1 9.500000e-06 3.500000e-06 0.000000e+00 1.807682e-04 1.053505e-01 -1.001953e+00
245 1 1.000000e-05 3.500000e-06 0.000000e+00 1.731056e-04 8.144228e-02 9.980469e-01
246 1 1.050000e-05 3.500000e-06 0.000000e+00 1.578453e-04 5.213467e-04 -1.001953e+00
247 1 1.100000e-05 3.500000e-06 0.000000e+00 1.806258e-04 1.074291e-01 9.980469e-01
248 1 1.150000e-05 3.500000e-06 0.000000e+00 1.888159e-04 2.237464e-01 -1.001953e+00
249 1 1.200000e-05 3.500000e-06 0.000000e+00 1.810709e-04 1.565663e-01 9.980469e-01
250 1 1.250000e-05 3.500000e-06 0.000000e+00 1.887453e-04 1.807694e-01 -1.001953e+00
251 1 1.300000e-05 3.500000e-06 0.000000e+00 1.810734e-04 1.788049e-01 9.980469e-01
252 1 1.350000e-05 3.500000e-06 0.000000e+00 1.808458e-04 1.393897e-01 -1.001953e+00
253 1 1.400000e-05 3.500000e-06 0.000000e+00 1.806193e-04 8.935357e-02 9.980469e-01
254 1 1.450000e-05 3.500000e-06 0.000000e+00 1.733286e-04 1.047384e-01 -1.001953e+00
255 1 1.500000e-05 3.500000e-06 0.000000e+00 1.733200e-04 9.106002e-02 9.980469e-01
256 1 1.550000e-05 3.500000e-06 0.000000e+00 1.887447e-04 2.162950e-01 -1.001953e+00
257 1 0.000000e+00 4.000000e-06 0.000000e+00 1.810731e-04 2.298868e-01 -1.001953e+00
258 1 5.000000e-07 4.000000e-06 0.000000e+00 1.810837e-04 1.623598e-01 9.980469e-01
259 1 1.000000e-06 4.000000e-06 0.000000e+00 1.810780e-04 1.622402e-01 -1.001953e+00
260 1 1.500000e-06 4.000000e-06 0.000000e+00 1.810812e-04 1.734291e-01 9.980469e-01
261 1 2.000000e-06 4.000000e-06 0.000000e+00 1.810588e-04 1.586073e-01 -1.001953e+00
262 1 2.500000e-06 4.000000e-06 0.000000e+00 1.810914e-04 1.921524e-01 9.980469e-01
263 1 3.000000e-06 4.000000e-06 0.000000e+00 1.887387e-04 1.801205e-01 9.980469e-01
264 1 3.500000e-06 4.000000e-06 0.000000e+00 1.810609e-04 1.558005e-01 -1.001953e+00
265 1 4.000000e-06 4.000000e-06 0.000000e+00 1.810758e-04 1.801262e-01 9.980469e-01
266 1 4.500000e-06 4.000000e-06 0.000000e+00 1.888160e-04 2.236898e-01 -1.001953e+00
267 1 5.000000e-06 4.000000e-06 0.000000e+00 1.810813e-04 1.752546e-01 9.980469e-01
268 1 5.500000e-06 4.000000e-06 0.000000e+00 1.810706e-04 1.677188e-01 -1.001953e+00
269 1 6.000000e-06 4.000000e-06 0.000000e+00 1.888158e-04 2.343678e-01 -1.001953e+00
270 1 6.500000e-06 4.000000e-06 0.000000e+00 1.810764e-04 1.566878e-01 9.980469e-01
271 1 7.000000e-06 4.000000e-06 0.000000e+00 1.888155e-04 2.165995e-01 -1.001953e+00
272 1 7.500000e-06 4.000000e-06 0.000000e+00 1.888157e-04 2.292119e-01 9.980469e-01
273 1 8.000000e-06 4.000000e-06 0.000000e+00 1.888153e-04 2.112192e-01 -1.001953e+00
274 1 8.500000e-06 4.000000e-06 0.000000e+00 1.885193e-04 1.671576e-01 9.980469e-01
275 1 9.000000e-06 4.000000e-06 0.000000e+00 1.887405e-04 1.861040e-01 -1.001953e+00
276 1 9.500000e-06 4.000000e-06 0.000000e+00 1.810841e-04 1.568487e-01 9.980469e-01
277 1 1.000000e-05 4.000000e-06 0.000000e+00 1.810797e-04 1.567574e-01 -1.001953e+00
278 1 1.050000e-05 4.000000e-06 0.000000e+00 1.810768e-04 1.493278e-01 9.980469e-01
279 1 1.100000e-05 4.000000e-06 0.000000e+00 1.808459e-04 1.393582e-01 -1.001953e+00
280 1 1.150000e-05 4.000000e-06 0.000000e+00 1.810713e-04 1.670828e-01 9.980469e-01
281 1 1.200000e-05 4.000000e-06 0.000000e+00 1.888156e-04 2.109785e-01 -1.001953e+00
282 1 1.250000e-05 4.000000e-06 0.000000e+00 1.888157e-04 2.050425e-01 9.980469e-01
283 1 1.300000e-05 4.000000e-06 0.000000e+00 1.887455e-04 1.924190e-01 -1.001953e+00
284 1 1.350000e-05 4.000000e-06 0.000000e+00 1.810803e-04 1.635831e-01 9.980469e-01
285 1 1.400000e-05 4.000000e-06 0.000000e+00 1.810746e-04 1.751091e-01 -1.001953e+00
286 1 1.450000e-05 4.000000e-06 0.000000e+00 1.810805e-04 1.752364e-01 9.980469e-01
287 1 1.500000e-05 4.000000e-06 0.000000e+00 1.810733e-04 1.616140e-01 -1.001953e+00
288 1 1.550000e-05 4.000000e-06 0.000000e+00 1.887433e-04 2.390430e-01 9.980469e-01
289 1 0.000000e+00 4.500000e-06 0.000000e+00 1.810696e-04 1.998174e-01 9.980469e-01
290 1 5.000000e-07 4.500000e-06 0.000000e+00 1.810746e-04 1.627785e-01 -1.001953e+00
291 1 1.000000e-06 4.500000e-06 0.000000e+00 1.810689e-04 1.626516e-01 9.980469e-01
292 1 1.500000e-06 4.500000e-06 0.000000e+00 1.810736e-04 1.627567e-01 -1.001953e+00
293 1 2.000000e-06 4.500000e-06 0.000000e+00 1.885885e-04 1.762497e-01 9.980469e-01
294 1 2.500000e-06 4.500000e-06 0.000000e+00 1.810714e-04 1.695500e-01 -1.001953e+00
295 1 3.000000e-06 4.500000e-06 0.000000e+00 1.888155e-04 2.108776e-01 -1.001953e+00
296 1 3.500000e-06 4.500000e-06 0.000000e+00 1.810782e-04 1.622438e-01 9.980469e-01
297 1 4.000000e-06 4.500000e-06 0.000000e+00 1.887413e-04 1.806215e-01 -1.001953e+00
298 1 4.500000e-06 4.500000e-06 0.000000e+00 1.810814e-04 1.567904e-01 9.980469e-01
299 1 5.000000e-06 4.500000e-06 0.000000e+00 1.888157e-04 2.050920e-01 -1.001953e+00
300 1 5.500000e-06 4.500000e-06 0.000000e+00 1.810776e-04 1.635228e-01 9.980469e-01
301 1 6.000000e-06 4.500000e-06 0.000000e+00 1.808371e-04 1.237609e-01 9.980469e-01
302 1 6.500000e-06 4.500000e-06 0.000000e+00 1.810776e-04 1.683624e-01 -1.001953e+00
303 1 7.000000e-06 4.500000e-06 0.000000e+00 1.810702e-04 1.620667e-01 9.980469e-01
304 1 7.500000e-06 4.500000e-06 0.000000e+00 1.810752e-04 1.788444e-01 -1.001953e+00
305 1 8.000000e-06 4.500000e-06 0.000000e+00 1.887440e-04 2.041537e-01 9.980469e-01
306 1 8.500000e-06 4.500000e-06 0.000000e+00 1.887506e-04 1.976096e-01 -1.001953e+00
307 1 9.000000e-06 4.500000e-06 0.000000e+00 1.810683e-04 1.565068e-01 9.980469e-01
308 1 9.500000e-06 4.500000e-06 0.000000e+00 1.887451e-04 1.807556e-01 -1.001953e+00
309 1 1.000000e-05 4.500000e-06 0.000000e+00 1.808519e-04 1.394905e-01 9.980469e-01
310 1 1.050000e-05 4.500000e-06 0.000000e+00 1.810765e-04 1.788738e-01 -1.001953e+00
311 1 1.100000e-05 4.500000e-06 0.000000e+00 1.809973e-04 1.347200e-01 9.980469e-01
312 1 1.150000e-05 4.500000e-06 0.000000e+00 1.810639e-04 1.490564e-01 -1.001953e+00
313 1 1.200000e-05 4.500000e-06 0.000000e+00 1.810821e-04 1.623262e-01 9.980469e-01
314 1 1.250000e-05 4.500000e-06 0.000000e+00 1.887480e-04 1.975026e-01 -1.001953e+00
315 1 1.300000e-05 4.500000e-06 0.000000e+00 1.887307e-04 1.826717e-01 9.980469e-01
316 1 1.350000e-05 4.500000e-06 0.000000e+00 1.810836e-04 1.814618e-01 -1.001953e+00
317 1 1.400000e-05 4.500000e-06 0.000000e+00 1.810818e-04 1.752640e-01 -1.001953e+00
318 1 1.450000e-05 4.500000e-06 0.000000e+00 1.810730e-04 1.750753e-01 -1.001953e+00
319 1 1.500000e-05 4.500000e-06 0.000000e+00 1.887424e-04 1.935916e-01 -1.001953e+00
320 1 1.550000e-05 4.500000e-06 0.000000e+00 1.888161e-04 2.946430e-01 -1.001953e+00
321 1 0.000000e+00 5.000000e-06 0.000000e+00 1.810756e-04 2.299413e-01 -1.001953e+00
322 1 5.000000e-07 5.000000e-06 0.000000e+00 1.810721e-04 1.621105e-01 9.980469e-01
323 1 1.000000e-06 5.000000e-06 0.000000e+00 1.810769e-04 1.622154e-01 -1.001953e+00
324 1 1.500000e-06 5.000000e-06 0.000000e+00 1.810799e-04 1.493911e-01 9.980469e-01
325 1 2.000000e-06 5.000000e-06 0.000000e+00 1.810648e-04 1.519299e-01 -1.001953e+00
326 1 2.500000e-06 5.000000e-06 0.000000e+00 1.810679e-04 1.569941e-01 9.980469e-01
327 1 3.000000e-06 5.000000e-06 0.000000e+00 1.810859e-04 1.815091e-01 -1.001953e+00
328 1 3.500000e-06 5.000000e-06 0.000000e+00 1.887424e-04 1.806577e-01 -1.001953e+00
329 1 4.000000e-06 5.000000e-06 0.000000e+00 1.888160e-04 2.044894e-01 9.980469e-01
330 1 4.500000e-06 5.000000e-06 0.000000e+00 1.887432e-04 1.806938e-01 -1.001953e+00
331 1 5.000000e-06 5.000000e-06 0.000000e+00 1.810809e-04 1.567826e-01 9.980469e-01
332 1 5.500000e-06 5.000000e-06 0.000000e+00 1.887424e-04 1.936010e-01 -1.001953e+00
333 1 6.000000e-06 5.000000e-06 0.000000e+00 1.808490e-04 1.462410e-01 -1.001953e+00
334 1 6.500000e-06 5.000000e-06 0.000000e+00 1.810760e-04 1.621958e-01 9.980469e-01
335 1 7.000000e-06 5.000000e-06 0.000000e+00 1.810827e-04 1.568204e-01 -1.001953e+00
336 1 7.500000e-06 5.000000e-06 0.000000e+00 1.810862e-04 1.624097e-01 9.980469e-01
337 1 8.000000e-06 5.000000e-06 0.000000e+00 1.887482e-04 1.925259e-01 -1.001953e+00
338 1 8.500000e-06 5.000000e-06 0.000000e+00 1.888156e-04 2.052846e-01 9.980469e-01
339 1 9.000000e-06 5.000000e-06 0.000000e+00 1.810789e-04 1.567416e-01 -1.001953e+00
340 1 9.500000e-06 5.000000e-06 0.000000e+00 1.888153e-04 2.049017e-01 9.980469e-01
341 1 1.000000e-05 5.000000e-06 0.000000e+00 1.887378e-04 1.921337e-01 -1.001953e+00
342 1 1.050000e-05 5.000000e-06 0.000000e+00 1.887474e-04 1.980529e-01 9.980469e-01
343 1 1.100000e-05 5.000000e-06 0.000000e+00 1.888156e-04 2.110472e-01 -1.001953e+00
344 1 1.150000e-05 5.000000e-06 0.000000e+00 1.885165e-04 1.634604e-01 9.980469e-01
345 1 1.200000e-05 5.000000e-06 0.000000e+00 1.810773e-04 1.567058e-01 -1.001953e+00
346 1 1.250000e-05 5.000000e-06 0.000000e+00 1.887428e-04 1.923212e-01 9.980469e-01
347 1 1.300000e-05 5.000000e-06 0.000000e+00 1.888160e-04 2.233450e-01 -1.001953e+00
348 1 1.350000e-05 5.000000e-06 0.000000e+00 1.809953e-04 1.469381e-01 9.980469e-01
349 1 1.400000e-05 5.000000e-06 0.000000e+00 1.808556e-04 1.463802e-01 -1.001953e+00
350 1 1.450000e-05 5.000000e-06 0.000000e+00 1.810711e-04 1.682180e-01 -1.001953e+00
351 1 1.500000e-05 5.000000e-06 0.000000e+00 1.810754e-04 1.566651e-01 9.980469e-01
352 1 1.550000e-05 5.000000e-06 0.000000e+00 1.887421e-04 2.454324e-01 9.980469e-01
353 1 0.000000e+00 5.500000e-06 0.000000e+00 1.810852e-04 1.753339e-01 9.980469e-01
354 1 5.000000e-07 5.500000e-06 0.000000e+00 1.733303e-04 1.099710e-01 -1.001953e+00