ITEM: TIMESTEP
4
ITEM: NUMBER OF ATOMS
16384
ITEM: BOX BOUNDS pp pp pp
0.0 1.600000e-05
0.0 1.600000e-05
0.0 8.000000e-06
ITEM: ATOMS id type x y z crack plastic psi
1 1 0.000000e+00 0.000000e+00 0.000000e+00 9.955024e-01 1.000000e+00 -1.500000e+00
2 1 5.000000e-07 0.000000e+00 0.000000e+00 9.902620e-01 8.164966e-01 1.500000e+00
3 1 1.000000e-06 0.000000e+00 0.000000e+00 9.897968e-01 8.164966e-01 -1.500000e+00
4 1 1.500000e-06 0.000000e+00 0.000000e+00 9.850972e-01 8.164966e-01 1.500000e+00
5 1 2.000000e-06 0.000000e+00 0.000000e+00 9.843846e-01 8.164966e-01 -1.500000e+00
6 1 2.500000e-06 0.000000e+00 0.000000e+00 9.817670e-01 8.164966e-01 1.500000e+00
7 1 3.000000e-06 0.000000e+00 0.000000e+00 9.818664e-01 8.164966e-01 -1.500000e+00
8 1 3.500000e-06 0.000000e+00 0.000000e+00 9.805431e-01 8.164966e-01 1.500000e+00
9 1 4.000000e-06 0.000000e+00 0.000000e+00 9.808930e-01 8.164966e-01 -1.500000e+00
10 1 4.500000e-06 0.000000e+00 0.000000e+00 9.801787e-01 8.164966e-01 1.500000e+00
11 1 5.000000e-06 0.000000e+00 0.000000e+00 9.804954e-01 8.164966e-01 -1.500000e+00
12 1 5.500000e-06 0.000000e+00 0.000000e+00 9.800832e-01 8.164966e-01 1.500000e+00
13 1 6.000000e-06 0.000000e+00 0.000000e+00 9.803375e-01 8.164966e-01 -1.500000e+00
14 1 6.500000e-06 0.000000e+00 0.000000e+00 9.800976e-01 8.164966e-01 1.500000e+00
15 1 7.000000e-06 0.000000e+00 0.000000e+00 9.803156e-01 8.164966e-01 -1.500000e+00
16 1 7.500000e-06 0.000000e+00 0.000000e+00 9.802025e-01 8.164966e-01 1.500000e+00
17 1 8.000000e-06 0.000000e+00 0.000000e+00 9.804137e-01 8.164966e-01 -1.500000e+00
18 1 8.500000e-06 0.000000e+00 0.000000e+00 9.804070e-01 8.164966e-01 1.500000e+00
19 1 9.000000e-06 0.000000e+00 0.000000e+00 9.806282e-01 8.164966e-01 -1.500000e+00
20 1 9.500000e-06 0.000000e+00 0.000000e+00 9.807556e-01 8.164966e-01 1.500000e+00
21 1 1.000000e-05 0.000000e+00 0.000000e+00 9.810192e-01 8.164966e-01 -1.500000e+00
22 1 1.050000e-05 0.000000e+00 0.000000e+00 9.813539e-01 8.164966e-01 1.500000e+00
23 1 1.100000e-05 0.000000e+00 0.000000e+00 9.817120e-01 8.164966e-01 -1.500000e+00
24 1 1.150000e-05 0.000000e+00 0.000000e+00 9.823882e-01 8.164966e-01 1.500000e+00
25 1 1.200000e-05 0.000000e+00 0.000000e+00 9.828832e-01 8.164966e-01 -1.500000e+00
26 1 1.250000e-05 0.000000e+00 0.000000e+00 9.841291e-01 8.164966e-01 1.500000e+00
27 1 1.300000e-05 0.000000e+00 0.000000e+00 9.846352e-01 8.164966e-01 -1.500000e+00
28 1 1.350000e-05 0.000000e+00 0.000000e+00 9.868906e-01 8.164966e-01 1.500000e+00
29 1 1.400000e-05 0.000000e+00 0.000000e+00 9.869713e-01 8.164966e-01 -1.500000e+00
30 1 1.450000e-05 0.000000e+00 0.000000e+00 9.909456e-01 8.164966e-01 1.500000e+00
31 1 1.500000e-05 0.000000e+00 0.000000e+00 9.904851e-01 8.164966e-01 -1.500000e+00
32 1 1.550000e-05 0.000000e+00 0.000000e+00 9.955711e-01 1.000000e+00 1.500000e+00
33 1 0.000000e+00 5.000000e-07 0.000000e+00 9.963927e-01 8.164966e-01 1.500000e+00
34 1 5.000000e-07 5.000000e-07 0.000000e+00 9.878238e-01 5.773503e-01 -1.500000e+00
35 1 1.000000e-06 5.000000e-07 0.000000e+00 9.844871e-01 5.773503e-01 1.500000e+00
36 1 1.500000e-06 5.000000e-07 0.000000e+00 9.789672e-01 5.773503e-01 -1.500000e+00
37 1 2.000000e-06 5.000000e-07 0.000000e+00 9.777768e-01 5.773503e-01 1.500000e+00
38 1 2.500000e-06 5.000000e-07 0.000000e+00 9.755870e-01 5.773503e-01 -1.500000e+00
39 1 3.000000e-06 5.000000e-07 0.000000e+00 9.755594e-01 5.773503e-01 1.500000e+00
40 1 3.500000e-06 5.000000e-07 0.000000e+00 9.746964e-01 5.773503e-01 -1.500000e+00
41 1 4.000000e-06 5.000000e-07 0.000000e+00 9.748763e-01 5.773503e-01 1.500000e+00
42 1 4.500000e-06 5.000000e-07 0.000000e+00 9.747267e-01 5.773503e-01 -1.500000e+00
43 1 5.000000e-06 5.000000e-07 0.000000e+00 9.748349e-01 5.773503e-01 1.500000e+00
44 1 5.500000e-06 5.000000e-07 0.000000e+00 9.747525e-01 5.773503e-01 -1.500000e+00
45 1 6.000000e-06 5.000000e-07 0.000000e+00 9.748140e-01 5.773503e-01 1.500000e+00
46 1 6.500000e-06 5.000000e-07 0.000000e+00 9.747761e-01 5.773503e-01 -1.500000e+00
47 1 7.000000e-06 5.000000e-07 0.000000e+00 9.748141e-01 5.773503e-01 1.500000e+00
48 1 7.500000e-06 5.000000e-07 0.000000e+00 9.748134e-01 5.773503e-01 -1.500000e+00
49 1 8.000000e-06 5.000000e-07 0.000000e+00 9.748487e-01 5.773503e-01 1.500000e+00
50 1 8.500000e-06 5.000000e-07 0.000000e+00 9.748686e-01 5.773503e-01 -1.500000e+00
51 1 9.000000e-06 5.000000e-07 0.000000e+00 9.749111e-01 5.773503e-01 1.500000e+00
52 1 9.500000e-06 5.000000e-07 0.000000e+00 9.750744e-01 5.773503e-01 -1.500000e+00
53 1 1.000000e-05 5.000000e-07 0.000000e+00 9.751595e-01 5.773503e-01 1.500000e+00
54 1 1.050000e-05 5.000000e-07 0.000000e+00 9.757740e-01 5.773503e-01 -1.500000e+00
55 1 1.100000e-05 5.000000e-07 0.000000e+00 9.760287e-01 5.773503e-01 1.500000e+00
56 1 1.150000e-05 5.000000e-07 0.000000e+00 9.769882e-01 5.773503e-01 -1.500000e+00
57 1 1.200000e-05 5.000000e-07 0.000000e+00 9.775421e-01 5.773503e-01 1.500000e+00
58 1 1.250000e-05 5.000000e-07 0.000000e+00 9.790791e-01 5.773503e-01 -1.500000e+00
59 1 1.300000e-05 5.000000e-07 0.000000e+00 9.800400e-01 5.773503e-01 1.500000e+00
60 1 1.350000e-05 5.000000e-07 0.000000e+00 9.826612e-01 5.773503e-01 -1.500000e+00
61 1 1.400000e-05 5.000000e-07 0.000000e+00 9.838635e-01 5.773503e-01 1.500000e+00
62 1 1.450000e-05 5.000000e-07 0.000000e+00 9.887662e-01 5.773503e-01 -1.500000e+00
63 1 1.500000e-05 5.000000e-07 0.000000e+00 9.895130e-01 5.773503e-01 1.500000e+00
64 1 1.550000e-05 5.000000e-07 0.000000e+00 9.969318e-01 8.164966e-01 -1.500000e+00
65 1 0.000000e+00 1.000000e-06 0.000000e+00 9.949162e-01 8.164966e-01 -1.500000e+00
66 1 5.000000e-07 1.000000e-06 0.000000e+00 9.866251e-01 5.773503e-01 1.500000e+00
67 1 1.000000e-06 1.000000e-06 0.000000e+00 9.842810e-01 5.773503e-01 -1.500000e+00
68 1 1.500000e-06 1.000000e-06 0.000000e+00 9.777374e-01 5.773503e-01 1.500000e+00
69 1 2.000000e-06 1.000000e-06 0.000000e+00 9.771921e-01 5.773503e-01 -1.500000e+00
70 1 2.500000e-06 1.000000e-06 0.000000e+00 9.739317e-01 5.773503e-01 1.500000e+00
71 1 3.000000e-06 1.000000e-06 0.000000e+00 9.739578e-01 5.773503e-01 -1.500000e+00
72 1 3.500000e-06 1.000000e-06 0.000000e+00 9.735563e-01 5.773503e-01 1.500000e+00
73 1 4.000000e-06 1.000000e-06 0.000000e+00 9.736226e-01 5.773503e-01 -1.500000e+00
74 1 4.500000e-06 1.000000e-06 0.000000e+00 9.734252e-01 5.773503e-01 1.500000e+00
75 1 5.000000e-06 1.000000e-06 0.000000e+00 9.734938e-01 5.773503e-01 -1.500000e+00
76 1 5.500000e-06 1.000000e-06 0.000000e+00 9.733882e-01 5.773503e-01 1.500000e+00
77 1 6.000000e-06 1.000000e-06 0.000000e+00 9.734519e-01 5.773503e-01 -1.500000e+00
78 1 6.500000e-06 1.000000e-06 0.000000e+00 9.733978e-01 5.773503e-01 1.500000e+00
79 1 7.000000e-06 1.000000e-06 0.000000e+00 9.734532e-01 5.773503e-01 -1.500000e+00
80 1 7.500000e-06 1.000000e-06 0.000000e+00 9.734382e-01 5.773503e-01 1.500000e+00
81 1 8.000000e-06 1.000000e-06 0.000000e+00 9.734902e-01 5.773503e-01 -1.500000e+00
82 1 8.500000e-06 1.000000e-06 0.000000e+00 9.735076e-01 5.773503e-01 1.500000e+00
83 1 9.000000e-06 1.000000e-06 0.000000e+00 9.735615e-01 5.773503e-01 -1.500000e+00
84 1 9.500000e-06 1.000000e-06 0.000000e+00 9.736168e-01 5.773503e-01 1.500000e+00
85 1 1.000000e-05 1.000000e-06 0.000000e+00 9.736806e-01 5.773503e-01 -1.500000e+00
86 1 1.050000e-05 1.000000e-06 0.000000e+00 9.737893e-01 5.773503e-01 1.500000e+00
87 1 1.100000e-05 1.000000e-06 0.000000e+00 9.738587e-01 5.773503e-01 -1.500000e+00
88 1 1.150000e-05 1.000000e-06 0.000000e+00 9.740643e-01 5.773503e-01 1.500000e+00
89 1 1.200000e-05 1.000000e-06 0.000000e+00 9.742370e-01 5.773503e-01 -1.500000e+00
90 1 1.250000e-05 1.000000e-06 0.000000e+00 9.758964e-01 5.773503e-01 1.500000e+00
91 1 1.300000e-05 1.000000e-06 0.000000e+00 9.764116e-01 5.773503e-01 -1.500000e+00
92 1 1.350000e-05 1.000000e-06 0.000000e+00 9.797011e-01 5.773503e-01 1.500000e+00
93 1 1.400000e-05 1.000000e-06 0.000000e+00 9.806847e-01 5.773503e-01 -1.500000e+00
94 1 1.450000e-05 1.000000e-06 0.000000e+00 9.867869e-01 5.773503e-01 1.500000e+00
95 1 1.500000e-05 1.000000e-06 0.000000e+00 9.877630e-01 5.773503e-01 -1.500000e+00
96 1 1.550000e-05 1.000000e-06 0.000000e+00 9.956827e-01 8.164966e-01 1.500000e+00
97 1 0.000000e+00 1.500000e-06 0.000000e+00 9.967497e-01 8.164966e-01 1.500000e+00
98 1 5.000000e-07 1.500000e-06 0.000000e+00 9.877168e-01 5.773503e-01 -1.500000e+00
99 1 1.000000e-06 1.500000e-06 0.000000e+00 9.846330e-01 5.773503e-01 1.500000e+00
100 1 1.500000e-06 1.500000e-06 0.000000e+00 9.777662e-01 5.773503e-01 -1.500000e+00
101 1 2.000000e-06 1.500000e-06 0.000000e+00 9.761567e-01 5.773503e-01 1.500000e+00
102 1 2.500000e-06 1.500000e-06 0.000000e+00 9.739487e-01 5.773503e-01 -1.500000e+00
103 1 3.000000e-06 1.500000e-06 0.000000e+00 9.739642e-01 5.773503e-01 1.500000e+00
104 1 3.500000e-06 1.500000e-06 0.000000e+00 9.736710e-01 5.773503e-01 -1.500000e+00
105 1 4.000000e-06 1.500000e-06 0.000000e+00 9.737257e-01 5.773503e-01 1.500000e+00
106 1 4.500000e-06 1.500000e-06 0.000000e+00 9.736075e-01 5.773503e-01 -1.500000e+00
107 1 5.000000e-06 1.500000e-06 0.000000e+00 9.736705e-01 5.773503e-01 1.500000e+00
108 1 5.500000e-06 1.500000e-06 0.000000e+00 9.736160e-01 5.773503e-01 -1.500000e+00
109 1 6.000000e-06 1.500000e-06 0.000000e+00 9.736741e-01 5.773503e-01 1.500000e+00
110 1 6.500000e-06 1.500000e-06 0.000000e+00 9.736500e-01 5.773503e-01 -1.500000e+00
111 1 7.000000e-06 1.500000e-06 0.000000e+00 9.737019e-01 5.773503e-01 1.500000e+00
112 1 7.500000e-06 1.500000e-06 0.000000e+00 9.736993e-01 5.773503e-01 -1.500000e+00
113 1 8.000000e-06 1.500000e-06 0.000000e+00 9.737509e-01 5.773503e-01 1.500000e+00
114 1 8.500000e-06 1.500000e-06 0.000000e+00 9.737666e-01 5.773503e-01 -1.500000e+00
115 1 9.000000e-06 1.500000e-06 0.000000e+00 9.738246e-01 5.773503e-01 1.500000e+00
116 1 9.500000e-06 1.500000e-06 0.000000e+00 9.738635e-01 5.773503e-01 -1.500000e+00
117 1 1.000000e-05 1.500000e-06 0.000000e+00 9.739351e-01 5.773503e-01 1.500000e+00
118 1 1.050000e-05 1.500000e-06 0.000000e+00 9.740036e-01 5.773503e-01 -1.500000e+00
119 1 1.100000e-05 1.500000e-06 0.000000e+00 9.740912e-01 5.773503e-01 1.500000e+00
120 1 1.150000e-05 1.500000e-06 0.000000e+00 9.742216e-01 5.773503e-01 -1.500000e+00
121 1 1.200000e-05 1.500000e-06 0.000000e+00 9.746282e-01 5.773503e-01 1.500000e+00
122 1 1.250000e-05 1.500000e-06 0.000000e+00 9.758434e-01 5.773503e-01 -1.500000e+00
123 1 1.300000e-05 1.500000e-06 0.000000e+00 9.766096e-01 5.773503e-01 1.500000e+00
124 1 1.350000e-05 1.500000e-06 0.000000e+00 9.794087e-01 5.773503e-01 -1.500000e+00
125 1 1.400000e-05 1.500000e-06 0.000000e+00 9.808851e-01 5.773503e-01 1.500000e+00
126 1 1.450000e-05 1.500000e-06 0.000000e+00 9.873674e-01 5.773503e-01 -1.500000e+00
127 1 1.500000e-05 1.500000e-06 0.000000e+00 9.893415e-01 5.773503e-01 1.500000e+00
128 1 1.550000e-05 1.500000e-06 0.000000e+00 9.972396e-01 8.164966e-01 -1.500000e+00
129 1 0.000000e+00 2.000000e-06 0.000000e+00 9.963020e-01 8.164966e-01 -1.500000e+00
130 1 5.000000e-07 2.000000e-06 0.000000e+00 9.872876e-01 5.773503e-01 1.500000e+00
131 1 1.000000e-06 2.000000e-06 0.000000e+00 9.839977e-01 5.773503e-01 -1.500000e+00
132 1 1.500000e-06 2.000000e-06 0.000000e+00 9.770713e-01 5.773503e-01 1.500000e+00
133 1 2.000000e-06 2.000000e-06 0.000000e+00 9.762113e-01 5.773503e-01 -1.500000e+00
134 1 2.500000e-06 2.000000e-06 0.000000e+00 9.737038e-01 5.773503e-01 1.500000e+00
135 1 3.000000e-06 2.000000e-06 0.000000e+00 9.738466e-01 5.773503e-01 -1.500000e+00
136 1 3.500000e-06 2.000000e-06 0.000000e+00 9.734874e-01 5.773503e-01 1.500000e+00
137 1 4.000000e-06 2.000000e-06 0.000000e+00 9.735724e-01 5.773503e-01 -1.500000e+00
138 1 4.500000e-06 2.000000e-06 0.000000e+00 9.734071e-01 5.773503e-01 1.500000e+00
139 1 5.000000e-06 2.000000e-06 0.000000e+00 9.734543e-01 5.773503e-01 -1.500000e+00
140 1 5.500000e-06 2.000000e-06 0.000000e+00 9.733718e-01 5.773503e-01 1.500000e+00
141 1 6.000000e-06 2.000000e-06 0.000000e+00 9.734077e-01 5.773503e-01 -1.500000e+00
142 1 6.500000e-06 2.000000e-06 0.000000e+00 9.733675e-01 5.773503e-01 1.500000e+00
143 1 7.000000e-06 2.000000e-06 0.000000e+00 9.733998e-01 5.773503e-01 -1.500000e+00
144 1 7.500000e-06 2.000000e-06 0.000000e+00 9.733891e-01 5.773503e-01 1.500000e+00
145 1 8.000000e-06 2.000000e-06 0.000000e+00 9.734200e-01 5.773503e-01 -1.500000e+00
146 1 8.500000e-06 2.000000e-06 0.000000e+00 9.734342e-01 5.773503e-01 1.500000e+00
147 1 9.000000e-06 2.000000e-06 0.000000e+00 9.734641e-01 5.773503e-01 -1.500000e+00
148 1 9.500000e-06 2.000000e-06 0.000000e+00 9.735080e-01 5.773503e-01 1.500000e+00
149 1 1.000000e-05 2.000000e-06 0.000000e+00 9.735369e-01 5.773503e-01 -1.500000e+00
150 1 1.050000e-05 2.000000e-06 0.000000e+00 9.736234e-01 5.773503e-01 1.500000e+00
151 1 1.100000e-05 2.000000e-06 0.000000e+00 9.736581e-01 5.773503e-01 -1.500000e+00
152 1 1.150000e-05 2.000000e-06 0.000000e+00 9.738272e-01 5.773503e-01 1.500000e+00
153 1 1.200000e-05 2.000000e-06 0.000000e+00 9.739054e-01 5.773503e-01 -1.500000e+00
154 1 1.250000e-05 2.000000e-06 0.000000e+00 9.748658e-01 5.773503e-01 1.500000e+00
155 1 1.300000e-05 2.000000e-06 0.000000e+00 9.756605e-01 5.773503e-01 -1.500000e+00
156 1 1.350000e-05 2.000000e-06 0.000000e+00 9.787324e-01 5.773503e-01 1.500000e+00
157 1 1.400000e-05 2.000000e-06 0.000000e+00 9.803404e-01 5.773503e-01 -1.500000e+00
158 1 1.450000e-05 2.000000e-06 0.000000e+00 9.868519e-01 5.773503e-01 1.500000e+00
159 1 1.500000e-05 2.000000e-06 0.000000e+00 9.888488e-01 5.773503e-01 -1.500000e+00
160 1 1.550000e-05 2.000000e-06 0.000000e+00 9.969410e-01 8.164966e-01 1.500000e+00
161 1 0.000000e+00 2.500000e-06 0.000000e+00 9.969106e-01 8.164966e-01 1.500000e+00
162 1 5.000000e-07 2.500000e-06 0.000000e+00 9.879566e-01 5.773503e-01 -1.500000e+00
163 1 1.000000e-06 2.500000e-06 0.000000e+00 9.848673e-01 5.773503e-01 1.500000e+00
164 1 1.500000e-06 2.500000e-06 0.000000e+00 9.774519e-01 5.773503e-01 -1.500000e+00
165 1 2.000000e-06 2.500000e-06 0.000000e+00 9.761799e-01 5.773503e-01 1.500000e+00
166 1 2.500000e-06 2.500000e-06 0.000000e+00 9.738059e-01 5.773503e-01 -1.500000e+00
167 1 3.000000e-06 2.500000e-06 0.000000e+00 9.739006e-01 5.773503e-01 1.500000e+00
168 1 3.500000e-06 2.500000e-06 0.000000e+00 9.735790e-01 5.773503e-01 -1.500000e+00
169 1 4.000000e-06 2.500000e-06 0.000000e+00 9.736270e-01 5.773503e-01 1.500000e+00
170 1 4.500000e-06 2.500000e-06 0.000000e+00 9.735068e-01 5.773503e-01 -1.500000e+00
171 1 5.000000e-06 2.500000e-06 0.000000e+00 9.735323e-01 5.773503e-01 1.500000e+00
172 1 5.500000e-06 2.500000e-06 0.000000e+00 9.734852e-01 5.773503e-01 -1.500000e+00
173 1 6.000000e-06 2.500000e-06 0.000000e+00 9.735086e-01 5.773503e-01 1.500000e+00
174 1 6.500000e-06 2.500000e-06 0.000000e+00 9.734883e-01 5.773503e-01 -1.500000e+00
175 1 7.000000e-06 2.500000e-06 0.000000e+00 9.735158e-01 5.773503e-01 1.500000e+00
176 1 7.500000e-06 2.500000e-06 0.000000e+00 9.735114e-01 5.773503e-01 -1.500000e+00
177 1 8.000000e-06 2.500000e-06 0.000000e+00 9.735438e-01 5.773503e-01 1.500000e+00
178 1 8.500000e-06 2.500000e-06 0.000000e+00 9.735517e-01 5.773503e-01 -1.500000e+00
179 1 9.000000e-06 2.500000e-06 0.000000e+00 9.735871e-01 5.773503e-01 1.500000e+00
180 1 9.500000e-06 2.500000e-06 0.000000e+00 9.736095e-01 5.773503e-01 -1.500000e+00
181 1 1.000000e-05 2.500000e-06 0.000000e+00 9.736498e-01 5.773503e-01 1.500000e+00
182 1 1.050000e-05 2.500000e-06 0.000000e+00 9.737001e-01 5.773503e-01 -1.500000e+00
183 1 1.100000e-05 2.500000e-06 0.000000e+00 9.737523e-01 5.773503e-01 1.500000e+00
184 1 1.150000e-05 2.500000e-06 0.000000e+00 9.738756e-01 5.773503e-01 -1.500000e+00
185 1 1.200000e-05 2.500000e-06 0.000000e+00 9.739729e-01 5.773503e-01 1.500000e+00
186 1 1.250000e-05 2.500000e-06 0.000000e+00 9.745447e-01 5.773503e-01 -1.500000e+00
187 1 1.300000e-05 2.500000e-06 0.000000e+00 9.755920e-01 5.773503e-01 1.500000e+00
188 1 1.350000e-05 2.500000e-06 0.000000e+00 9.786817e-01 5.773503e-01 -1.500000e+00
189 1 1.400000e-05 2.500000e-06 0.000000e+00 9.807188e-01 5.773503e-01 1.500000e+00
190 1 1.450000e-05 2.500000e-06 0.000000e+00 9.876492e-01 5.773503e-01 -1.500000e+00
191 1 1.500000e-05 2.500000e-06 0.000000e+00 9.899723e-01 5.773503e-01 1.500000e+00
192 1 1.550000e-05 2.500000e-06 0.000000e+00 9.975138e-01 8.164966e-01 -1.500000e+00
193 1 0.000000e+00 3.000000e-06 0.000000e+00 9.968226e-01 8.164966e-01 -1.500000e+00
194 1 5.000000e-07 3.000000e-06 0.000000e+00 9.878121e-01 5.773503e-01 1.500000e+00
195 1 1.000000e-06 3.000000e-06 0.000000e+00 9.844345e-01 5.773503e-01 -1.500000e+00
196 1 1.500000e-06 3.000000e-06 0.000000e+00 9.770484e-01 5.773503e-01 1.500000e+00
197 1 2.000000e-06 3.000000e-06 0.000000e+00 9.757438e-01 5.773503e-01 -1.500000e+00
198 1 2.500000e-06 3.000000e-06 0.000000e+00 9.736155e-01 5.773503e-01 1.500000e+00
199 1 3.000000e-06 3.000000e-06 0.000000e+00 9.737624e-01 5.773503e-01 -1.500000e+00
200 1 3.500000e-06 3.000000e-06 0.000000e+00 9.734215e-01 5.773503e-01 1.500000e+00
201 1 4.000000e-06 3.000000e-06 0.000000e+00 9.735324e-01 5.773503e-01 -1.500000e+00
202 1 4.500000e-06 3.000000e-06 0.000000e+00 9.733890e-01 5.773503e-01 1.500000e+00
203 1 5.000000e-06 3.000000e-06 0.000000e+00 9.734476e-01 5.773503e-01 -1.500000e+00
204 1 5.500000e-06 3.000000e-06 0.000000e+00 9.733807e-01 5.773503e-01 1.500000e+00
205 1 6.000000e-06 3.000000e-06 0.000000e+00 9.734083e-01 5.773503e-01 -1.500000e+00
206 1 6.500000e-06 3.000000e-06 0.000000e+00 9.733772e-01 5.773503e-01 1.500000e+00
207 1 7.000000e-06 3.000000e-06 0.000000e+00 9.733939e-01 5.773503e-01 -1.500000e+00
208 1 7.500000e-06 3.000000e-06 0.000000e+00 9.733848e-01 5.773503e-01 1.500000e+00
209 1 8.000000e-06 3.000000e-06 0.000000e+00 9.733962e-01 5.773503e-01 -1.500000e+00
210 1 8.500000e-06 3.000000e-06 0.000000e+00 9.734072e-01 5.773503e-01 1.500000e+00
211 1 9.000000e-06 3.000000e-06 0.000000e+00 9.734197e-01 5.773503e-01 -1.500000e+00
212 1 9.500000e-06 3.000000e-06 0.000000e+00 9.734509e-01 5.773503e-01 1.500000e+00
213 1 1.000000e-05 3.000000e-06 0.000000e+00 9.734703e-01 5.773503e-01 -1.500000e+00
214 1 1.050000e-05 3.000000e-06 0.000000e+00 9.735392e-01 5.773503e-01 1.500000e+00
215 1 1.100000e-05 3.000000e-06 0.000000e+00 9.735882e-01 5.773503e-01 -1.500000e+00
216 1 1.150000e-05 3.000000e-06 0.000000e+00 9.737334e-01 5.773503e-01 1.500000e+00
217 1 1.200000e-05 3.000000e-06 0.000000e+00 9.738482e-01 5.773503e-01 -1.500000e+00
218 1 1.250000e-05 3.000000e-06 0.000000e+00 9.742524e-01 5.773503e-01 1.500000e+00
219 1 1.300000e-05 3.000000e-06 0.000000e+00 9.752968e-01 5.773503e-01 -1.500000e+00
220 1 1.350000e-05 3.000000e-06 0.000000e+00 9.784280e-01 5.773503e-01 1.500000e+00
221 1 1.400000e-05 3.000000e-06 0.000000e+00 9.803910e-01 5.773503e-01 -1.500000e+00
222 1 1.450000e-05 3.000000e-06 0.000000e+00 9.873643e-01 5.773503e-01 1.500000e+00
223 1 1.500000e-05 3.000000e-06 0.000000e+00 9.897292e-01 5.773503e-01 -1.500000e+00
224 1 1.550000e-05 3.000000e-06 0.000000e+00 9.974360e-01 8.164966e-01 1.500000e+00
225 1 0.000000e+00 3.500000e-06 0.000000e+00 9.970040e-01 8.164966e-01 1.500000e+00
226 1 5.000000e-07 3.500000e-06 0.000000e+00 9.881919e-01 5.773503e-01 -1.500000e+00
227 1 1.000000e-06 3.500000e-06 0.000000e+00 9.850455e-01 5.773503e-01 1.500000e+00
228 1 1.500000e-06 3.500000e-06 0.000000e+00 9.773848e-01 5.773503e-01 -1.500000e+00
229 1 2.000000e-06 3.500000e-06 0.000000e+00 9.760671e-01 5.773503e-01 1.500000e+00
230 1 2.500000e-06 3.500000e-06 0.000000e+00 9.736812e-01 5.773503e-01 -1.500000e+00
231 1 3.000000e-06 3.500000e-06 0.000000e+00 9.738151e-01 5.773503e-01 1.500000e+00
232 1 3.500000e-06 3.500000e-06 0.000000e+00 9.734601e-01 5.773503e-01 -1.500000e+00
233 1 4.000000e-06 3.500000e-06 0.000000e+00 9.735487e-01 5.773503e-01 1.500000e+00
234 1 4.500000e-06 3.500000e-06 0.000000e+00 9.734195e-01 5.773503e-01 -1.500000e+00
235 1 5.000000e-06 3.500000e-06 0.000000e+00 9.734582e-01 5.773503e-01 1.500000e+00
236 1 5.500000e-06 3.500000e-06 0.000000e+00 9.734089e-01 5.773503e-01 -1.500000e+00
237 1 6.000000e-06 3.500000e-06 0.000000e+00 9.734227e-01 5.773503e-01 1.500000e+00
238 1 6.500000e-06 3.500000e-06 0.000000e+00 9.734034e-01 5.773503e-01 -1.500000e+00
239 1 7.000000e-06 3.500000e-06 0.000000e+00 9.734133e-01 5.773503e-01 1.500000e+00
240 1 7.500000e-06 3.500000e-06 0.000000e+00 9.734074e-01 5.773503e-01 -1.500000e+00
241 1 8.000000e-06 3.500000e-06 0.000000e+00 9.734188e-01 5.773503e-01 1.500000e+00
242 1 8.500000e-06 3.500000e-06 0.000000e+00 9.734229e-01 5.773503e-01 -1.500000e+00
243 1 9.000000e-06 3.500000e-06 0.000000e+00 9.734394e-01 5.773503e-01 1.500000e+00
244 1 9.500000e-06 3.500000e-06 0.000000e+00 9.734583e-01 5.773503e-01 -1.500000e+00
245 1 1.000000e-05 3.500000e-06 0.000000e+00 9.734867e-01 5.773503e-01 1.500000e+00
246 1 1.050000e-05 3.500000e-06 0.000000e+00 9.735370e-01 5.773503e-01 -1.500000e+00
247 1 1.100000e-05 3.500000e-06 0.000000e+00 9.735984e-01 5.773503e-01 1.500000e+00
248 1 1.150000e-05 3.500000e-06 0.000000e+00 9.737329e-01 5.773503e-01 -1.500000e+00
249 1 1.200000e-05 3.500000e-06 0.000000e+00 9.738610e-01 5.773503e-01 1.500000e+00
250 1 1.250000e-05 3.500000e-06 0.000000e+00 9.742277e-01 5.773503e-01 -1.500000e+00
251 1 1.300000e-05 3.500000e-06 0.000000e+00 9.753746e-01 5.773503e-01 1.500000e+00
252 1 1.350000e-05 3.500000e-06 0.000000e+00 9.787222e-01 5.773503e-01 -1.500000e+00
253 1 1.400000e-05 3.500000e-06 0.000000e+00 9.808429e-01 5.773503e-01 1.500000e+00
254 1 1.450000e-05 3.500000e-06 0.000000e+00 9.879523e-01 5.773503e-01 -1.500000e+00
255 1 1.500000e-05 3.500000e-06 0.000000e+00 9.902919e-01 5.773503e-01 1.500000e+00
256 1 1.550000e-05 3.500000e-06 0.000000e+00 9.976165e-01 8.164966e-01 -1.500000e+00
257 1 0.000000e+00 4.000000e-06 0.000000e+00 9.969804e-01 8.164966e-01 -1.500000e+00
258 1 5.000000e-07 4.000000e-06 0.000000e+00 9.881382e-01 5.773503e-01 1.500000e+00
259 1 1.000000e-06 4.000000e-06 0.000000e+00 9.848897e-01 5.773503e-01 -1.500000e+00
260 1 1.500000e-06 4.000000e-06 0.000000e+00 9.772488e-01 5.773503e-01 1.500000e+00
261 1 2.000000e-06 4.000000e-06 0.000000e+00 9.757464e-01 5.773503e-01 -1.500000e+00
262 1 2.500000e-06 4.000000e-06 0.000000e+00 9.735877e-01 5.773503e-01 1.500000e+00
263 1 3.000000e-06 4.000000e-06 0.000000e+00 9.737110e-01 5.773503e-01 -1.500000e+00
264 1 3.500000e-06 4.000000e-06 0.000000e+00 9.733522e-01 5.773503e-01 1.500000e+00
265 1 4.000000e-06 4.000000e-06 0.000000e+00 9.734615e-01 5.773503e-01 -1.500000e+00
266 1 4.500000e-06 4.000000e-06 0.000000e+00 9.733231e-01 5.773503e-01 1.500000e+00
267 1 5.000000e-06 4.000000e-06 0.000000e+00 9.733926e-01 5.773503e-01 -1.500000e+00
268 1 5.500000e-06 4.000000e-06 0.000000e+00 9.733336e-01 5.773503e-01 1.500000e+00
269 1 6.000000e-06 4.000000e-06 0.000000e+00 9.733647e-01 5.773503e-01 -1.500000e+00
270 1 6.500000e-06 4.000000e-06 0.000000e+00 9.733386e-01 5.773503e-01 1.500000e+00
271 1 7.000000e-06 4.000000e-06 0.000000e+00 9.733529e-01 5.773503e-01 -1.500000e+00
272 1 7.500000e-06 4.000000e-06 0.000000e+00 9.733451e-01 5.773503e-01 1.500000e+00
273 1 8.000000e-06 4.000000e-06 0.000000e+00 9.733519e-01 5.773503e-01 -1.500000e+00
274 1 8.500000e-06 4.000000e-06 0.000000e+00 9.733589e-01 5.773503e-01 1.500000e+00
275 1 9.000000e-06 4.000000e-06 0.000000e+00 9.733686e-01 5.773503e-01 -1.500000e+00
276 1 9.500000e-06 4.000000e-06 0.000000e+00 9.733940e-01 5.773503e-01 1.500000e+00
277 1 1.000000e-05 4.000000e-06 0.000000e+00 9.734206e-01 5.773503e-01 -1.500000e+00
278 1 1.050000e-05 4.000000e-06 0.000000e+00 9.734802e-01 5.773503e-01 1.500000e+00
279 1 1.100000e-05 4.000000e-06 0.000000e+00 9.735441e-01 5.773503e-01 -1.500000e+00
280 1 1.150000e-05 4.000000e-06 0.000000e+00 9.736852e-01 5.773503e-01 1.500000e+00
281 1 1.200000e-05 4.000000e-06 0.000000e+00 9.738125e-01 5.773503e-01 -1.500000e+00
282 1 1.250000e-05 4.000000e-06 0.000000e+00 9.741800e-01 5.773503e-01 1.500000e+00
283 1 1.300000e-05 4.000000e-06 0.000000e+00 9.751829e-01 5.773503e-01 -1.500000e+00
284 1 1.350000e-05 4.000000e-06 0.000000e+00 9.785309e-01 5.773503e-01 1.500000e+00
285 1 1.400000e-05 4.000000e-06 0.000000e+00 9.806546e-01 5.773503e-01 -1.500000e+00
286 1 1.450000e-05 4.000000e-06 0.000000e+00 9.878117e-01 5.773503e-01 1.500000e+00
287 1 1.500000e-05 4.000000e-06 0.000000e+00 9.902255e-01 5.773503e-01 -1.500000e+00
288 1 1.550000e-05 4.000000e-06 0.000000e+00 9.976059e-01 8.164966e-01 1.500000e+00
289 1 0.000000e+00 4.500000e-06 0.000000e+00 9.970348e-01 8.164966e-01 1.500000e+00
290 1 5.000000e-07 4.500000e-06 0.000000e+00 9.883226e-01 5.773503e-01 -1.500000e+00
291 1 1.000000e-06 4.500000e-06 0.000000e+00 9.852041e-01 5.773503e-01 1.500000e+00
292 1 1.500000e-06 4.500000e-06 0.000000e+00 9.774769e-01 5.773503e-01 -1.500000e+00
293 1 2.000000e-06 4.500000e-06 0.000000e+00 9.760702e-01 5.773503e-01 1.500000e+00
294 1 2.500000e-06 4.500000e-06 0.000000e+00 9.736301e-01 5.773503e-01 -1.500000e+00
295 1 3.000000e-06 4.500000e-06 0.000000e+00 9.737578e-01 5.773503e-01 1.500000e+00
296 1 3.500000e-06 4.500000e-06 0.000000e+00 9.733693e-01 5.773503e-01 -1.500000e+00
297 1 4.000000e-06 4.500000e-06 0.000000e+00 9.734711e-01 5.773503e-01 1.500000e+00
298 1 4.500000e-06 4.500000e-06 0.000000e+00 9.733274e-01 5.773503e-01 -1.500000e+00
299 1 5.000000e-06 4.500000e-06 0.000000e+00 9.733846e-01 5.773503e-01 1.500000e+00
300 1 5.500000e-06 4.500000e-06 0.000000e+00 9.733302e-01 5.773503e-01 -1.500000e+00
301 1 6.000000e-06 4.500000e-06 0.000000e+00 9.733521e-01 5.773503e-01 1.500000e+00
302 1 6.500000e-06 4.500000e-06 0.000000e+00 9.733324e-01 5.773503e-01 -1.500000e+00
303 1 7.000000e-06 4.500000e-06 0.000000e+00 9.733416e-01 5.773503e-01 1.500000e+00
304 1 7.500000e-06 4.500000e-06 0.000000e+00 9.733368e-01 5.773503e-01 -1.500000e+00
305 1 8.000000e-06 4.500000e-06 0.000000e+00 9.733434e-01 5.773503e-01 1.500000e+00
306 1 8.500000e-06 4.500000e-06 0.000000e+00 9.733468e-01 5.773503e-01 -1.500000e+00
307 1 9.000000e-06 4.500000e-06 0.000000e+00 9.733580e-01 5.773503e-01 1.500000e+00
308 1 9.500000e-06 4.500000e-06 0.000000e+00 9.733774e-01 5.773503e-01 -1.500000e+00
309 1 1.000000e-05 4.500000e-06 0.000000e+00 9.734089e-01 5.773503e-01 1.500000e+00
310 1 1.050000e-05 4.500000e-06 0.000000e+00 9.734644e-01 5.773503e-01 -1.500000e+00
311 1 1.100000e-05 4.500000e-06 0.000000e+00 9.735349e-01 5.773503e-01 1.500000e+00
312 1 1.150000e-05 4.500000e-06 0.000000e+00 9.736854e-01 5.773503e-01 -1.500000e+00
313 1 1.200000e-05 4.500000e-06 0.000000e+00 9.738206e-01 5.773503e-01 1.500000e+00
314 1 1.250000e-05 4.500000e-06 0.000000e+00 9.742188e-01 5.773503e-01 -1.500000e+00
315 1 1.300000e-05 4.500000e-06 0.000000e+00 9.753379e-01 5.773503e-01 1.500000e+00
316 1 1.350000e-05 4.500000e-06 0.000000e+00 9.788605e-01 5.773503e-01 -1.500000e+00
317 1 1.400000e-05 4.500000e-06 0.000000e+00 9.809725e-01 5.773503e-01 1.500000e+00
318 1 1.450000e-05 4.500000e-06 0.000000e+00 9.881380e-01 5.773503e-01 -1.500000e+00
319 1 1.500000e-05 4.500000e-06 0.000000e+00 9.904711e-01 5.773503e-01 1.500000e+00
320 1 1.550000e-05 4.500000e-06 0.000000e+00 9.976605e-01 8.164966e-01 -1.500000e+00
321 1 0.000000e+00 5.000000e-06 0.000000e+00 9.970330e-01 8.164966e-01 -1.500000e+00
322 1 5.000000e-07 5.000000e-06 0.000000e+00 9.883174e-01 5.773503e-01 1.500000e+00
323 1 1.000000e-06 5.000000e-06 0.000000e+00 9.851557e-01 5.773503e-01 -1.500000e+00
324 1 1.500000e-06 5.000000e-06 0.000000e+00 9.774339e-01 5.773503e-01 1.500000e+00
325 1 2.000000e-06 5.000000e-06 0.000000e+00 9.759231e-01 5.773503e-01 -1.500000e+00
326 1 2.500000e-06 5.000000e-06 0.000000e+00 9.735915e-01 5.773503e-01 1.500000e+00
327 1 3.000000e-06 5.000000e-06 0.000000e+00 9.737021e-01 5.773503e-01 -1.500000e+00
328 1 3.500000e-06 5.000000e-06 0.000000e+00 9.733146e-01 5.773503e-01 1.500000e+00
329 1 4.000000e-06 5.000000e-06 0.000000e+00 9.734137e-01 5.773503e-01 -1.500000e+00
330 1 4.500000e-06 5.000000e-06 0.000000e+00 9.732646e-01 5.773503e-01 1.500000e+00
331 1 5.000000e-06 5.000000e-06 0.000000e+00 9.733359e-01 5.773503e-01 -1.500000e+00
332 1 5.500000e-06 5.000000e-06 0.000000e+00 9.732783e-01 5.773503e-01 1.500000e+00
333 1 6.000000e-06 5.000000e-06 0.000000e+00 9.733132e-01 5.773503e-01 -1.500000e+00
334 1 6.500000e-06 5.000000e-06 0.000000e+00 9.732899e-01 5.773503e-01 1.500000e+00
335 1 7.000000e-06 5.000000e-06 0.000000e+00 9.733092e-01 5.773503e-01 -1.500000e+00
336 1 7.500000e-06 5.000000e-06 0.000000e+00 9.733043e-01 5.773503e-01 1.500000e+00
337 1 8.000000e-06 5.000000e-06 0.000000e+00 9.733169e-01 5.773503e-01 -1.500000e+00
338 1 8.500000e-06 5.000000e-06 0.000000e+00 9.733230e-01 5.773503e-01 1.500000e+00
339 1 9.000000e-06 5.000000e-06 0.000000e+00 9.733361e-01 5.773503e-01 -1.500000e+00
340 1 9.500000e-06 5.000000e-06 0.000000e+00 9.733569e-01 5.773503e-01 1.500000e+00
341 1 1.000000e-05 5.000000e-06 0.000000e+00 9.733886e-01 5.773503e-01 -1.500000e+00
342 1 1.050000e-05 5.000000e-06 0.000000e+00 9.734477e-01 5.773503e-01 1.500000e+00
343 1 1.100000e-05 5.000000e-06 0.000000e+00 9.735147e-01 5.773503e-01 -1.500000e+00
344 1 1.150000e-05 5.000000e-06 0.000000e+00 9.736654e-01 5.773503e-01 1.500000e+00
345 1 1.200000e-05 5.000000e-06 0.000000e+00 9.737894e-01 5.773503e-01 -1.500000e+00
346 1 1.250000e-05 5.000000e-06 0.000000e+00 9.741871e-01 5.773503e-01 1.500000e+00
347 1 1.300000e-05 5.000000e-06 0.000000e+00 9.752167e-01 5.773503e-01 -1.500000e+00
348 1 1.350000e-05 5.000000e-06 0.000000e+00 9.787373e-01 5.773503e-01 1.500000e+00
349 1 1.400000e-05 5.000000e-06 0.000000e+00 9.809205e-01 5.773503e-01 -1.500000e+00
350 1 1.450000e-05 5.000000e-06 0.000000e+00 9.880863e-01 5.773503e-01 1.500000e+00
351 1 1.500000e-05 5.000000e-06 0.000000e+00 9.904609e-01 5.773503e-01 -1.500000e+00
352 1 1.550000e-05 5.000000e-06 0.000000e+00 9.976655e-01 8.164966e-01 1.500000e+00
353 1 0.000000e+00 5.500000e-06 0.000000e+00 9.970455e-01 8.164966e-01 1.500000e+00
354 1 5.000000e-07 5.500000e-06 0.000000e+00 9.883943e-01 5.773503e-01 -1.500000e+00