ITEM: TIMESTEP
22
ITEM: NUMBER OF ATOMS
16384
ITEM: BOX BOUNDS pp pp pp
0.0 1.600000e-05
0.0 1.600000e-05
0.0 8.000000e-06
ITEM: ATOMS id type x y z crack plastic psi
1 1 0.000000e+00 0.000000e+00 0.000000e+00 1.000000e+00 9.845098e-01 -1.000000e+00
2 1 5.000000e-07 0.000000e+00 0.000000e+00 1.000000e+00 8.098199e-01 1.000000e+00
3 1 1.000000e-06 0.000000e+00 0.000000e+00 1.000000e+00 8.080562e-01 -1.000000e+00
4 1 1.500000e-06 0.000000e+00 0.000000e+00 1.000000e+00 8.074194e-01 1.000000e+00
5 1 2.000000e-06 0.000000e+00 0.000000e+00 1.000000e+00 8.074154e-01 -1.000000e+00
6 1 2.500000e-06 0.000000e+00 0.000000e+00 1.000000e+00 8.070977e-01 1.000000e+00
7 1 3.000000e-06 0.000000e+00 0.000000e+00 1.000000e+00 8.077056e-01 -1.000000e+00
8 1 3.500000e-06 0.000000e+00 0.000000e+00 1.000000e+00 8.077037e-01 1.000000e+00
9 1 4.000000e-06 0.000000e+00 0.000000e+00 1.000000e+00 8.077020e-01 -1.000000e+00
10 1 4.500000e-06 0.000000e+00 0.000000e+00 1.000000e+00 8.067480e-01 1.000000e+00
11 1 5.000000e-06 0.000000e+00 0.000000e+00 1.000000e+00 8.073382e-01 -1.000000e+00
12 1 5.500000e-06 0.000000e+00 0.000000e+00 1.000000e+00 8.066371e-01 1.000000e+00
13 1 6.000000e-06 0.000000e+00 0.000000e+00 1.000000e+00 8.066256e-01 -1.000000e+00
14 1 6.500000e-06 0.000000e+00 0.000000e+00 1.000000e+00 8.077020e-01 1.000000e+00
15 1 7.000000e-06 0.000000e+00 0.000000e+00 1.000000e+00 8.087202e-01 -1.000000e+00
16 1 7.500000e-06 0.000000e+00 0.000000e+00 1.000000e+00 8.095617e-01 1.000000e+00
17 1 8.000000e-06 0.000000e+00 0.000000e+00 1.000000e+00 8.083620e-01 -1.000000e+00
18 1 8.500000e-06 0.000000e+00 0.000000e+00 1.000000e+00 8.078340e-01 1.000000e+00
19 1 9.000000e-06 0.000000e+00 0.000000e+00 1.000000e+00 8.087598e-01 -1.000000e+00
20 1 9.500000e-06 0.000000e+00 0.000000e+00 1.000000e+00 8.082019e-01 1.000000e+00
21 1 1.000000e-05 0.000000e+00 0.000000e+00 1.000000e+00 8.095708e-01 -1.000000e+00
22 1 1.050000e-05 0.000000e+00 0.000000e+00 1.000000e+00 8.090626e-01 1.000000e+00
23 1 1.100000e-05 0.000000e+00 0.000000e+00 1.000000e+00 8.068188e-01 -1.000000e+00
24 1 1.150000e-05 0.000000e+00 0.000000e+00 1.000000e+00 8.024843e-01 1.000000e+00
25 1 1.200000e-05 0.000000e+00 0.000000e+00 1.000000e+00 8.066188e-01 -1.000000e+00
26 1 1.250000e-05 0.000000e+00 0.000000e+00 1.000000e+00 8.086535e-01 1.000000e+00
27 1 1.300000e-05 0.000000e+00 0.000000e+00 1.000000e+00 8.090531e-01 -1.000000e+00
28 1 1.350000e-05 0.000000e+00 0.000000e+00 1.000000e+00 8.086032e-01 1.000000e+00
29 1 1.400000e-05 0.000000e+00 0.000000e+00 1.000000e+00 8.082479e-01 -1.000000e+00
30 1 1.450000e-05 0.000000e+00 0.000000e+00 1.000000e+00 8.069523e-01 1.000000e+00
31 1 1.500000e-05 0.000000e+00 0.000000e+00 1.000000e+00 8.088627e-01 -1.000000e+00
32 1 1.550000e-05 0.000000e+00 0.000000e+00 1.000000e+00 9.874064e-01 1.000000e+00
33 1 0.000000e+00 5.000000e-07 0.000000e+00 1.000000e+00 8.008766e-01 1.000000e+00
34 1 5.000000e-07 5.000000e-07 0.000000e+00 1.000000e+00 5.718478e-01 -1.000000e+00
35 1 1.000000e-06 5.000000e-07 0.000000e+00 1.000000e+00 5.696753e-01 1.000000e+00
36 1 1.500000e-06 5.000000e-07 0.000000e+00 1.000000e+00 5.700164e-01 -1.000000e+00
37 1 2.000000e-06 5.000000e-07 0.000000e+00 1.000000e+00 5.699739e-01 1.000000e+00
38 1 2.500000e-06 5.000000e-07 0.000000e+00 1.000000e+00 5.703581e-01 -1.000000e+00
39 1 3.000000e-06 5.000000e-07 0.000000e+00 1.000000e+00 5.695496e-01 1.000000e+00
40 1 3.500000e-06 5.000000e-07 0.000000e+00 1.000000e+00 5.704417e-01 -1.000000e+00
41 1 4.000000e-06 5.000000e-07 0.000000e+00 1.000000e+00 5.705034e-01 1.000000e+00
42 1 4.500000e-06 5.000000e-07 0.000000e+00 1.000000e+00 5.701209e-01 -1.000000e+00
43 1 5.000000e-06 5.000000e-07 0.000000e+00 1.000000e+00 5.692678e-01 1.000000e+00
44 1 5.500000e-06 5.000000e-07 0.000000e+00 1.000000e+00 5.677424e-01 -1.000000e+00
45 1 6.000000e-06 5.000000e-07 0.000000e+00 1.000000e+00 5.691132e-01 1.000000e+00
46 1 6.500000e-06 5.000000e-07 0.000000e+00 1.000000e+00 5.714874e-01 -1.000000e+00
47 1 7.000000e-06 5.000000e-07 0.000000e+00 1.000000e+00 5.718449e-01 1.000000e+00
48 1 7.500000e-06 5.000000e-07 0.000000e+00 1.000000e+00 5.753536e-01 -1.000000e+00
49 1 8.000000e-06 5.000000e-07 0.000000e+00 1.000000e+00 5.721250e-01 1.000000e+00
50 1 8.500000e-06 5.000000e-07 0.000000e+00 1.000000e+00 5.708752e-01 -1.000000e+00
51 1 9.000000e-06 5.000000e-07 0.000000e+00 1.000000e+00 5.701928e-01 1.000000e+00
52 1 9.500000e-06 5.000000e-07 0.000000e+00 1.000000e+00 5.732121e-01 -1.000000e+00
53 1 1.000000e-05 5.000000e-07 0.000000e+00 1.000000e+00 5.723906e-01 1.000000e+00
54 1 1.050000e-05 5.000000e-07 0.000000e+00 1.000000e+00 5.695264e-01 -1.000000e+00
55 1 1.100000e-05 5.000000e-07 0.000000e+00 1.000000e+00 5.732341e-01 1.000000e+00
56 1 1.150000e-05 5.000000e-07 0.000000e+00 1.000000e+00 5.730060e-01 -1.000000e+00
57 1 1.200000e-05 5.000000e-07 0.000000e+00 1.000000e+00 5.718653e-01 1.000000e+00
58 1 1.250000e-05 5.000000e-07 0.000000e+00 1.000000e+00 5.693978e-01 -1.000000e+00
59 1 1.300000e-05 5.000000e-07 0.000000e+00 1.000000e+00 5.709314e-01 1.000000e+00
60 1 1.350000e-05 5.000000e-07 0.000000e+00 1.000000e+00 5.703957e-01 -1.000000e+00
61 1 1.400000e-05 5.000000e-07 0.000000e+00 1.000000e+00 5.705575e-01 1.000000e+00
62 1 1.450000e-05 5.000000e-07 0.000000e+00 1.000000e+00 5.728661e-01 -1.000000e+00
63 1 1.500000e-05 5.000000e-07 0.000000e+00 1.000000e+00 5.733232e-01 1.000000e+00
64 1 1.550000e-05 5.000000e-07 0.000000e+00 1.000000e+00 8.053282e-01 -1.000000e+00
65 1 0.000000e+00 1.000000e-06 0.000000e+00 1.000000e+00 8.030594e-01 -1.000000e+00
66 1 5.000000e-07 1.000000e-06 0.000000e+00 1.000000e+00 5.731020e-01 1.000000e+00
67 1 1.000000e-06 1.000000e-06 0.000000e+00 1.000000e+00 5.700033e-01 -1.000000e+00
68 1 1.500000e-06 1.000000e-06 0.000000e+00 1.000000e+00 5.696755e-01 1.000000e+00
69 1 2.000000e-06 1.000000e-06 0.000000e+00 1.000000e+00 5.695219e-01 -1.000000e+00
70 1 2.500000e-06 1.000000e-06 0.000000e+00 1.000000e+00 5.695483e-01 1.000000e+00
71 1 3.000000e-06 1.000000e-06 0.000000e+00 1.000000e+00 5.688175e-01 -1.000000e+00
72 1 3.500000e-06 1.000000e-06 0.000000e+00 1.000000e+00 5.705052e-01 1.000000e+00
73 1 4.000000e-06 1.000000e-06 0.000000e+00 1.000000e+00 5.717797e-01 -1.000000e+00
74 1 4.500000e-06 1.000000e-06 0.000000e+00 1.000000e+00 5.731174e-01 1.000000e+00
75 1 5.000000e-06 1.000000e-06 0.000000e+00 1.000000e+00 5.727867e-01 -1.000000e+00
76 1 5.500000e-06 1.000000e-06 0.000000e+00 1.000000e+00 5.717495e-01 1.000000e+00
77 1 6.000000e-06 1.000000e-06 0.000000e+00 1.000000e+00 5.727884e-01 -1.000000e+00
78 1 6.500000e-06 1.000000e-06 0.000000e+00 1.000000e+00 5.696791e-01 1.000000e+00
79 1 7.000000e-06 1.000000e-06 0.000000e+00 1.000000e+00 5.689110e-01 -1.000000e+00
80 1 7.500000e-06 1.000000e-06 0.000000e+00 1.000000e+00 5.726594e-01 1.000000e+00
81 1 8.000000e-06 1.000000e-06 0.000000e+00 1.000000e+00 5.707083e-01 -1.000000e+00
82 1 8.500000e-06 1.000000e-06 0.000000e+00 1.000000e+00 5.708148e-01 1.000000e+00
83 1 9.000000e-06 1.000000e-06 0.000000e+00 1.000000e+00 5.731820e-01 -1.000000e+00
84 1 9.500000e-06 1.000000e-06 0.000000e+00 1.000000e+00 5.743490e-01 1.000000e+00
85 1 1.000000e-05 1.000000e-06 0.000000e+00 1.000000e+00 5.724473e-01 -1.000000e+00
86 1 1.050000e-05 1.000000e-06 0.000000e+00 1.000000e+00 5.707922e-01 1.000000e+00
87 1 1.100000e-05 1.000000e-06 0.000000e+00 1.000000e+00 5.732420e-01 -1.000000e+00
88 1 1.150000e-05 1.000000e-06 0.000000e+00 1.000000e+00 5.706134e-01 1.000000e+00
89 1 1.200000e-05 1.000000e-06 0.000000e+00 1.000000e+00 5.726865e-01 -1.000000e+00
90 1 1.250000e-05 1.000000e-06 0.000000e+00 1.000000e+00 5.714417e-01 1.000000e+00
91 1 1.300000e-05 1.000000e-06 0.000000e+00 1.000000e+00 5.711935e-01 -1.000000e+00
92 1 1.350000e-05 1.000000e-06 0.000000e+00 1.000000e+00 5.711409e-01 1.000000e+00
93 1 1.400000e-05 1.000000e-06 0.000000e+00 1.000000e+00 5.711770e-01 -1.000000e+00
94 1 1.450000e-05 1.000000e-06 0.000000e+00 1.000000e+00 5.718652e-01 1.000000e+00
95 1 1.500000e-05 1.000000e-06 0.000000e+00 1.000000e+00 5.732557e-01 -1.000000e+00
96 1 1.550000e-05 1.000000e-06 0.000000e+00 1.000000e+00 8.066475e-01 1.000000e+00
97 1 0.000000e+00 1.500000e-06 0.000000e+00 1.000000e+00 8.049765e-01 1.000000e+00
98 1 5.000000e-07 1.500000e-06 0.000000e+00 1.000000e+00 5.727158e-01 -1.000000e+00
99 1 1.000000e-06 1.500000e-06 0.000000e+00 1.000000e+00 5.707059e-01 1.000000e+00
100 1 1.500000e-06 1.500000e-06 0.000000e+00 1.000000e+00 5.717618e-01 -1.000000e+00
101 1 2.000000e-06 1.500000e-06 0.000000e+00 1.000000e+00 5.718499e-01 1.000000e+00
102 1 2.500000e-06 1.500000e-06 0.000000e+00 1.000000e+00 5.714882e-01 -1.000000e+00
103 1 3.000000e-06 1.500000e-06 0.000000e+00 1.000000e+00 5.711316e-01 1.000000e+00
104 1 3.500000e-06 1.500000e-06 0.000000e+00 1.000000e+00 5.711310e-01 -1.000000e+00
105 1 4.000000e-06 1.500000e-06 0.000000e+00 1.000000e+00 5.721997e-01 1.000000e+00
106 1 4.500000e-06 1.500000e-06 0.000000e+00 1.000000e+00 5.726032e-01 -1.000000e+00
107 1 5.000000e-06 1.500000e-06 0.000000e+00 1.000000e+00 5.725909e-01 1.000000e+00
108 1 5.500000e-06 1.500000e-06 0.000000e+00 1.000000e+00 5.723423e-01 -1.000000e+00
109 1 6.000000e-06 1.500000e-06 0.000000e+00 1.000000e+00 5.709420e-01 1.000000e+00
110 1 6.500000e-06 1.500000e-06 0.000000e+00 1.000000e+00 5.718961e-01 -1.000000e+00
111 1 7.000000e-06 1.500000e-06 0.000000e+00 1.000000e+00 5.720110e-01 1.000000e+00
112 1 7.500000e-06 1.500000e-06 0.000000e+00 1.000000e+00 5.715982e-01 -1.000000e+00
113 1 8.000000e-06 1.500000e-06 0.000000e+00 1.000000e+00 5.714527e-01 1.000000e+00
114 1 8.500000e-06 1.500000e-06 0.000000e+00 1.000000e+00 5.710834e-01 -1.000000e+00
115 1 9.000000e-06 1.500000e-06 0.000000e+00 1.000000e+00 5.726546e-01 1.000000e+00
116 1 9.500000e-06 1.500000e-06 0.000000e+00 1.000000e+00 5.727210e-01 -1.000000e+00
117 1 1.000000e-05 1.500000e-06 0.000000e+00 1.000000e+00 5.721836e-01 1.000000e+00
118 1 1.050000e-05 1.500000e-06 0.000000e+00 1.000000e+00 5.727219e-01 -1.000000e+00
119 1 1.100000e-05 1.500000e-06 0.000000e+00 1.000000e+00 5.729498e-01 1.000000e+00
120 1 1.150000e-05 1.500000e-06 0.000000e+00 1.000000e+00 5.723643e-01 -1.000000e+00
121 1 1.200000e-05 1.500000e-06 0.000000e+00 1.000000e+00 5.740452e-01 1.000000e+00
122 1 1.250000e-05 1.500000e-06 0.000000e+00 1.000000e+00 5.751103e-01 -1.000000e+00
123 1 1.300000e-05 1.500000e-06 0.000000e+00 1.000000e+00 5.744084e-01 1.000000e+00
124 1 1.350000e-05 1.500000e-06 0.000000e+00 1.000000e+00 5.737199e-01 -1.000000e+00
125 1 1.400000e-05 1.500000e-06 0.000000e+00 1.000000e+00 5.731095e-01 1.000000e+00
126 1 1.450000e-05 1.500000e-06 0.000000e+00 1.000000e+00 5.738503e-01 -1.000000e+00
127 1 1.500000e-05 1.500000e-06 0.000000e+00 1.000000e+00 5.722922e-01 1.000000e+00
128 1 1.550000e-05 1.500000e-06 0.000000e+00 1.000000e+00 8.073406e-01 -1.000000e+00
129 1 0.000000e+00 2.000000e-06 0.000000e+00 1.000000e+00 8.059571e-01 -1.000000e+00
130 1 5.000000e-07 2.000000e-06 0.000000e+00 1.000000e+00 5.713737e-01 1.000000e+00
131 1 1.000000e-06 2.000000e-06 0.000000e+00 1.000000e+00 5.720343e-01 -1.000000e+00
132 1 1.500000e-06 2.000000e-06 0.000000e+00 1.000000e+00 5.716612e-01 1.000000e+00
133 1 2.000000e-06 2.000000e-06 0.000000e+00 1.000000e+00 5.706340e-01 -1.000000e+00
134 1 2.500000e-06 2.000000e-06 0.000000e+00 1.000000e+00 5.713025e-01 1.000000e+00
135 1 3.000000e-06 2.000000e-06 0.000000e+00 1.000000e+00 5.719270e-01 -1.000000e+00
136 1 3.500000e-06 2.000000e-06 0.000000e+00 1.000000e+00 5.711336e-01 1.000000e+00
137 1 4.000000e-06 2.000000e-06 0.000000e+00 1.000000e+00 5.723746e-01 -1.000000e+00
138 1 4.500000e-06 2.000000e-06 0.000000e+00 1.000000e+00 5.723231e-01 1.000000e+00
139 1 5.000000e-06 2.000000e-06 0.000000e+00 1.000000e+00 5.728358e-01 -1.000000e+00
140 1 5.500000e-06 2.000000e-06 0.000000e+00 1.000000e+00 5.701411e-01 1.000000e+00
141 1 6.000000e-06 2.000000e-06 0.000000e+00 1.000000e+00 5.721098e-01 -1.000000e+00
142 1 6.500000e-06 2.000000e-06 0.000000e+00 1.000000e+00 5.705388e-01 1.000000e+00
143 1 7.000000e-06 2.000000e-06 0.000000e+00 1.000000e+00 5.705954e-01 -1.000000e+00
144 1 7.500000e-06 2.000000e-06 0.000000e+00 1.000000e+00 5.709851e-01 1.000000e+00
145 1 8.000000e-06 2.000000e-06 0.000000e+00 1.000000e+00 5.711105e-01 -1.000000e+00
146 1 8.500000e-06 2.000000e-06 0.000000e+00 1.000000e+00 5.717982e-01 1.000000e+00
147 1 9.000000e-06 2.000000e-06 0.000000e+00 1.000000e+00 5.714427e-01 -1.000000e+00
148 1 9.500000e-06 2.000000e-06 0.000000e+00 1.000000e+00 5.702328e-01 1.000000e+00
149 1 1.000000e-05 2.000000e-06 0.000000e+00 1.000000e+00 5.735532e-01 -1.000000e+00
150 1 1.050000e-05 2.000000e-06 0.000000e+00 1.000000e+00 5.713782e-01 1.000000e+00
151 1 1.100000e-05 2.000000e-06 0.000000e+00 1.000000e+00 5.713794e-01 -1.000000e+00
152 1 1.150000e-05 2.000000e-06 0.000000e+00 1.000000e+00 5.731890e-01 1.000000e+00
153 1 1.200000e-05 2.000000e-06 0.000000e+00 1.000000e+00 5.738395e-01 -1.000000e+00
154 1 1.250000e-05 2.000000e-06 0.000000e+00 1.000000e+00 5.735688e-01 1.000000e+00
155 1 1.300000e-05 2.000000e-06 0.000000e+00 1.000000e+00 5.712672e-01 -1.000000e+00
156 1 1.350000e-05 2.000000e-06 0.000000e+00 1.000000e+00 5.717589e-01 1.000000e+00
157 1 1.400000e-05 2.000000e-06 0.000000e+00 1.000000e+00 5.717379e-01 -1.000000e+00
158 1 1.450000e-05 2.000000e-06 0.000000e+00 1.000000e+00 5.712960e-01 1.000000e+00
159 1 1.500000e-05 2.000000e-06 0.000000e+00 1.000000e+00 5.712691e-01 -1.000000e+00
160 1 1.550000e-05 2.000000e-06 0.000000e+00 1.000000e+00 8.071688e-01 1.000000e+00
161 1 0.000000e+00 2.500000e-06 0.000000e+00 1.000000e+00 8.067995e-01 1.000000e+00
162 1 5.000000e-07 2.500000e-06 0.000000e+00 1.000000e+00 5.723155e-01 -1.000000e+00
163 1 1.000000e-06 2.500000e-06 0.000000e+00 1.000000e+00 5.722117e-01 1.000000e+00
164 1 1.500000e-06 2.500000e-06 0.000000e+00 1.000000e+00 5.722514e-01 -1.000000e+00
165 1 2.000000e-06 2.500000e-06 0.000000e+00 1.000000e+00 5.715064e-01 1.000000e+00
166 1 2.500000e-06 2.500000e-06 0.000000e+00 1.000000e+00 5.704499e-01 -1.000000e+00
167 1 3.000000e-06 2.500000e-06 0.000000e+00 1.000000e+00 5.713731e-01 1.000000e+00
168 1 3.500000e-06 2.500000e-06 0.000000e+00 1.000000e+00 5.712149e-01 -1.000000e+00
169 1 4.000000e-06 2.500000e-06 0.000000e+00 1.000000e+00 5.719076e-01 1.000000e+00
170 1 4.500000e-06 2.500000e-06 0.000000e+00 1.000000e+00 5.718124e-01 -1.000000e+00
171 1 5.000000e-06 2.500000e-06 0.000000e+00 1.000000e+00 5.721158e-01 1.000000e+00
172 1 5.500000e-06 2.500000e-06 0.000000e+00 1.000000e+00 5.725245e-01 -1.000000e+00
173 1 6.000000e-06 2.500000e-06 0.000000e+00 1.000000e+00 5.723465e-01 1.000000e+00
174 1 6.500000e-06 2.500000e-06 0.000000e+00 1.000000e+00 5.724066e-01 -1.000000e+00
175 1 7.000000e-06 2.500000e-06 0.000000e+00 1.000000e+00 5.719378e-01 1.000000e+00
176 1 7.500000e-06 2.500000e-06 0.000000e+00 1.000000e+00 5.726466e-01 -1.000000e+00
177 1 8.000000e-06 2.500000e-06 0.000000e+00 1.000000e+00 5.728129e-01 1.000000e+00
178 1 8.500000e-06 2.500000e-06 0.000000e+00 1.000000e+00 5.730036e-01 -1.000000e+00
179 1 9.000000e-06 2.500000e-06 0.000000e+00 1.000000e+00 5.722592e-01 1.000000e+00
180 1 9.500000e-06 2.500000e-06 0.000000e+00 1.000000e+00 5.731018e-01 -1.000000e+00
181 1 1.000000e-05 2.500000e-06 0.000000e+00 1.000000e+00 5.715028e-01 1.000000e+00
182 1 1.050000e-05 2.500000e-06 0.000000e+00 1.000000e+00 5.732708e-01 -1.000000e+00
183 1 1.100000e-05 2.500000e-06 0.000000e+00 1.000000e+00 5.728672e-01 1.000000e+00
184 1 1.150000e-05 2.500000e-06 0.000000e+00 1.000000e+00 5.729937e-01 -1.000000e+00
185 1 1.200000e-05 2.500000e-06 0.000000e+00 1.000000e+00 5.751251e-01 1.000000e+00
186 1 1.250000e-05 2.500000e-06 0.000000e+00 1.000000e+00 5.732450e-01 -1.000000e+00
187 1 1.300000e-05 2.500000e-06 0.000000e+00 1.000000e+00 5.741414e-01 1.000000e+00
188 1 1.350000e-05 2.500000e-06 0.000000e+00 1.000000e+00 5.732838e-01 -1.000000e+00
189 1 1.400000e-05 2.500000e-06 0.000000e+00 1.000000e+00 5.730135e-01 1.000000e+00
190 1 1.450000e-05 2.500000e-06 0.000000e+00 1.000000e+00 5.722808e-01 -1.000000e+00
191 1 1.500000e-05 2.500000e-06 0.000000e+00 1.000000e+00 5.727201e-01 1.000000e+00
192 1 1.550000e-05 2.500000e-06 0.000000e+00 1.000000e+00 8.066830e-01 -1.000000e+00
193 1 0.000000e+00 3.000000e-06 0.000000e+00 1.000000e+00 8.082824e-01 -1.000000e+00
194 1 5.000000e-07 3.000000e-06 0.000000e+00 1.000000e+00 5.712171e-01 1.000000e+00
195 1 1.000000e-06 3.000000e-06 0.000000e+00 1.000000e+00 5.715906e-01 -1.000000e+00
196 1 1.500000e-06 3.000000e-06 0.000000e+00 1.000000e+00 5.717642e-01 1.000000e+00
197 1 2.000000e-06 3.000000e-06 0.000000e+00 1.000000e+00 5.704007e-01 -1.000000e+00
198 1 2.500000e-06 3.000000e-06 0.000000e+00 1.000000e+00 5.704052e-01 1.000000e+00
199 1 3.000000e-06 3.000000e-06 0.000000e+00 1.000000e+00 5.713185e-01 -1.000000e+00
200 1 3.500000e-06 3.000000e-06 0.000000e+00 1.000000e+00 5.715673e-01 1.000000e+00
201 1 4.000000e-06 3.000000e-06 0.000000e+00 1.000000e+00 5.711334e-01 -1.000000e+00
202 1 4.500000e-06 3.000000e-06 0.000000e+00 1.000000e+00 5.719088e-01 1.000000e+00
203 1 5.000000e-06 3.000000e-06 0.000000e+00 1.000000e+00 5.732222e-01 -1.000000e+00
204 1 5.500000e-06 3.000000e-06 0.000000e+00 1.000000e+00 5.725809e-01 1.000000e+00
205 1 6.000000e-06 3.000000e-06 0.000000e+00 1.000000e+00 5.724547e-01 -1.000000e+00
206 1 6.500000e-06 3.000000e-06 0.000000e+00 1.000000e+00 5.728092e-01 1.000000e+00
207 1 7.000000e-06 3.000000e-06 0.000000e+00 1.000000e+00 5.735250e-01 -1.000000e+00
208 1 7.500000e-06 3.000000e-06 0.000000e+00 1.000000e+00 5.713339e-01 1.000000e+00
209 1 8.000000e-06 3.000000e-06 0.000000e+00 1.000000e+00 5.698936e-01 -1.000000e+00
210 1 8.500000e-06 3.000000e-06 0.000000e+00 1.000000e+00 5.702153e-01 1.000000e+00
211 1 9.000000e-06 3.000000e-06 0.000000e+00 1.000000e+00 5.701869e-01 -1.000000e+00
212 1 9.500000e-06 3.000000e-06 0.000000e+00 1.000000e+00 5.720624e-01 1.000000e+00
213 1 1.000000e-05 3.000000e-06 0.000000e+00 1.000000e+00 5.701913e-01 -1.000000e+00
214 1 1.050000e-05 3.000000e-06 0.000000e+00 1.000000e+00 5.715483e-01 1.000000e+00
215 1 1.100000e-05 3.000000e-06 0.000000e+00 1.000000e+00 5.741923e-01 -1.000000e+00
216 1 1.150000e-05 3.000000e-06 0.000000e+00 1.000000e+00 5.746560e-01 1.000000e+00
217 1 1.200000e-05 3.000000e-06 0.000000e+00 1.000000e+00 5.719607e-01 -1.000000e+00
218 1 1.250000e-05 3.000000e-06 0.000000e+00 1.000000e+00 5.724799e-01 1.000000e+00
219 1 1.300000e-05 3.000000e-06 0.000000e+00 1.000000e+00 5.731929e-01 -1.000000e+00
220 1 1.350000e-05 3.000000e-06 0.000000e+00 1.000000e+00 5.730083e-01 1.000000e+00
221 1 1.400000e-05 3.000000e-06 0.000000e+00 1.000000e+00 5.726971e-01 -1.000000e+00
222 1 1.450000e-05 3.000000e-06 0.000000e+00 1.000000e+00 5.730114e-01 1.000000e+00
223 1 1.500000e-05 3.000000e-06 0.000000e+00 1.000000e+00 5.728592e-01 -1.000000e+00
224 1 1.550000e-05 3.000000e-06 0.000000e+00 1.000000e+00 8.093541e-01 1.000000e+00
225 1 0.000000e+00 3.500000e-06 0.000000e+00 1.000000e+00 8.077020e-01 1.000000e+00
226 1 5.000000e-07 3.500000e-06 0.000000e+00 1.000000e+00 5.711317e-01 -1.000000e+00
227 1 1.000000e-06 3.500000e-06 0.000000e+00 1.000000e+00 5.711300e-01 1.000000e+00
228 1 1.500000e-06 3.500000e-06 0.000000e+00 1.000000e+00 5.712126e-01 -1.000000e+00
229 1 2.000000e-06 3.500000e-06 0.000000e+00 1.000000e+00 5.707853e-01 1.000000e+00
230 1 2.500000e-06 3.500000e-06 0.000000e+00 1.000000e+00 5.706783e-01 -1.000000e+00
231 1 3.000000e-06 3.500000e-06 0.000000e+00 1.000000e+00 5.708558e-01 1.000000e+00
232 1 3.500000e-06 3.500000e-06 0.000000e+00 1.000000e+00 5.708862e-01 -1.000000e+00
233 1 4.000000e-06 3.500000e-06 0.000000e+00 1.000000e+00 5.703341e-01 1.000000e+00
234 1 4.500000e-06 3.500000e-06 0.000000e+00 1.000000e+00 5.681016e-01 -1.000000e+00
235 1 5.000000e-06 3.500000e-06 0.000000e+00 1.000000e+00 5.701475e-01 1.000000e+00
236 1 5.500000e-06 3.500000e-06 0.000000e+00 1.000000e+00 5.723559e-01 -1.000000e+00
237 1 6.000000e-06 3.500000e-06 0.000000e+00 1.000000e+00 5.712140e-01 1.000000e+00
238 1 6.500000e-06 3.500000e-06 0.000000e+00 1.000000e+00 5.712183e-01 -1.000000e+00
239 1 7.000000e-06 3.500000e-06 0.000000e+00 1.000000e+00 5.712135e-01 1.000000e+00
240 1 7.500000e-06 3.500000e-06 0.000000e+00 1.000000e+00 5.702092e-01 -1.000000e+00
241 1 8.000000e-06 3.500000e-06 0.000000e+00 1.000000e+00 5.713085e-01 1.000000e+00
242 1 8.500000e-06 3.500000e-06 0.000000e+00 1.000000e+00 5.700471e-01 -1.000000e+00
243 1 9.000000e-06 3.500000e-06 0.000000e+00 1.000000e+00 5.718410e-01 1.000000e+00
244 1 9.500000e-06 3.500000e-06 0.000000e+00 1.000000e+00 5.703737e-01 -1.000000e+00
245 1 1.000000e-05 3.500000e-06 0.000000e+00 1.000000e+00 5.700203e-01 1.000000e+00
246 1 1.050000e-05 3.500000e-06 0.000000e+00 1.000000e+00 5.688242e-01 -1.000000e+00
247 1 1.100000e-05 3.500000e-06 0.000000e+00 1.000000e+00 5.709324e-01 1.000000e+00
248 1 1.150000e-05 3.500000e-06 0.000000e+00 1.000000e+00 5.724981e-01 -1.000000e+00
249 1 1.200000e-05 3.500000e-06 0.000000e+00 1.000000e+00 5.711307e-01 1.000000e+00
250 1 1.250000e-05 3.500000e-06 0.000000e+00 1.000000e+00 5.714885e-01 -1.000000e+00
251 1 1.300000e-05 3.500000e-06 0.000000e+00 1.000000e+00 5.714594e-01 1.000000e+00
252 1 1.350000e-05 3.500000e-06 0.000000e+00 1.000000e+00 5.709887e-01 -1.000000e+00
253 1 1.400000e-05 3.500000e-06 0.000000e+00 1.000000e+00 5.702492e-01 1.000000e+00
254 1 1.450000e-05 3.500000e-06 0.000000e+00 1.000000e+00 5.703646e-01 -1.000000e+00
255 1 1.500000e-05 3.500000e-06 0.000000e+00 1.000000e+00 5.701625e-01 1.000000e+00
256 1 1.550000e-05 3.500000e-06 0.000000e+00 1.000000e+00 8.076251e-01 -1.000000e+00
257 1 0.000000e+00 4.000000e-06 0.000000e+00 1.000000e+00 8.078260e-01 -1.000000e+00
258 1 5.000000e-07 4.000000e-06 0.000000e+00 1.000000e+00 5.712163e-01 1.000000e+00
259 1 1.000000e-06 4.000000e-06 0.000000e+00 1.000000e+00 5.712146e-01 -1.000000e+00
260 1 1.500000e-06 4.000000e-06 0.000000e+00 1.000000e+00 5.713800e-01 1.000000e+00
261 1 2.000000e-06 4.000000e-06 0.000000e+00 1.000000e+00 5.711609e-01 -1.000000e+00
262 1 2.500000e-06 4.000000e-06 0.000000e+00 1.000000e+00 5.713070e-01 1.000000e+00
263 1 3.000000e-06 4.000000e-06 0.000000e+00 1.000000e+00 5.722204e-01 -1.000000e+00
264 1 3.500000e-06 4.000000e-06 0.000000e+00 1.000000e+00 5.724254e-01 1.000000e+00
265 1 4.000000e-06 4.000000e-06 0.000000e+00 1.000000e+00 5.718614e-01 -1.000000e+00
266 1 4.500000e-06 4.000000e-06 0.000000e+00 1.000000e+00 5.733929e-01 1.000000e+00
267 1 5.000000e-06 4.000000e-06 0.000000e+00 1.000000e+00 5.728843e-01 -1.000000e+00
268 1 5.500000e-06 4.000000e-06 0.000000e+00 1.000000e+00 5.723326e-01 1.000000e+00
269 1 6.000000e-06 4.000000e-06 0.000000e+00 1.000000e+00 5.725170e-01 -1.000000e+00
270 1 6.500000e-06 4.000000e-06 0.000000e+00 1.000000e+00 5.711325e-01 1.000000e+00
271 1 7.000000e-06 4.000000e-06 0.000000e+00 1.000000e+00 5.720181e-01 -1.000000e+00
272 1 7.500000e-06 4.000000e-06 0.000000e+00 1.000000e+00 5.722045e-01 1.000000e+00
273 1 8.000000e-06 4.000000e-06 0.000000e+00 1.000000e+00 5.719385e-01 -1.000000e+00
274 1 8.500000e-06 4.000000e-06 0.000000e+00 1.000000e+00 5.712873e-01 1.000000e+00
275 1 9.000000e-06 4.000000e-06 0.000000e+00 1.000000e+00 5.715673e-01 -1.000000e+00
276 1 9.500000e-06 4.000000e-06 0.000000e+00 1.000000e+00 5.711349e-01 1.000000e+00
277 1 1.000000e-05 4.000000e-06 0.000000e+00 1.000000e+00 5.711335e-01 -1.000000e+00
278 1 1.050000e-05 4.000000e-06 0.000000e+00 1.000000e+00 5.710237e-01 1.000000e+00
279 1 1.100000e-05 4.000000e-06 0.000000e+00 1.000000e+00 5.708764e-01 -1.000000e+00
280 1 1.150000e-05 4.000000e-06 0.000000e+00 1.000000e+00 5.712862e-01 1.000000e+00
281 1 1.200000e-05 4.000000e-06 0.000000e+00 1.000000e+00 5.719350e-01 -1.000000e+00
282 1 1.250000e-05 4.000000e-06 0.000000e+00 1.000000e+00 5.718472e-01 1.000000e+00
283 1 1.300000e-05 4.000000e-06 0.000000e+00 1.000000e+00 5.716606e-01 -1.000000e+00
284 1 1.350000e-05 4.000000e-06 0.000000e+00 1.000000e+00 5.712344e-01 1.000000e+00
285 1 1.400000e-05 4.000000e-06 0.000000e+00 1.000000e+00 5.715167e-01 -1.000000e+00
286 1 1.450000e-05 4.000000e-06 0.000000e+00 1.000000e+00 5.714067e-01 1.000000e+00
287 1 1.500000e-05 4.000000e-06 0.000000e+00 1.000000e+00 5.713172e-01 -1.000000e+00
288 1 1.550000e-05 4.000000e-06 0.000000e+00 1.000000e+00 8.079613e-01 1.000000e+00
289 1 0.000000e+00 4.500000e-06 0.000000e+00 1.000000e+00 8.073815e-01 1.000000e+00
290 1 5.000000e-07 4.500000e-06 0.000000e+00 1.000000e+00 5.712225e-01 -1.000000e+00
291 1 1.000000e-06 4.500000e-06 0.000000e+00 1.000000e+00 5.712207e-01 1.000000e+00
292 1 1.500000e-06 4.500000e-06 0.000000e+00 1.000000e+00 5.712222e-01 -1.000000e+00
293 1 2.000000e-06 4.500000e-06 0.000000e+00 1.000000e+00 5.714216e-01 1.000000e+00
294 1 2.500000e-06 4.500000e-06 0.000000e+00 1.000000e+00 5.709729e-01 -1.000000e+00
295 1 3.000000e-06 4.500000e-06 0.000000e+00 1.000000e+00 5.728456e-01 1.000000e+00
296 1 3.500000e-06 4.500000e-06 0.000000e+00 1.000000e+00 5.720207e-01 -1.000000e+00
297 1 4.000000e-06 4.500000e-06 0.000000e+00 1.000000e+00 5.718864e-01 1.000000e+00
298 1 4.500000e-06 4.500000e-06 0.000000e+00 1.000000e+00 5.702419e-01 -1.000000e+00
299 1 5.000000e-06 4.500000e-06 0.000000e+00 1.000000e+00 5.719123e-01 1.000000e+00
300 1 5.500000e-06 4.500000e-06 0.000000e+00 1.000000e+00 5.716406e-01 -1.000000e+00
301 1 6.000000e-06 4.500000e-06 0.000000e+00 1.000000e+00 5.710203e-01 1.000000e+00
302 1 6.500000e-06 4.500000e-06 0.000000e+00 1.000000e+00 5.713051e-01 -1.000000e+00
303 1 7.000000e-06 4.500000e-06 0.000000e+00 1.000000e+00 5.712120e-01 1.000000e+00
304 1 7.500000e-06 4.500000e-06 0.000000e+00 1.000000e+00 5.714600e-01 -1.000000e+00
305 1 8.000000e-06 4.500000e-06 0.000000e+00 1.000000e+00 5.718341e-01 1.000000e+00
306 1 8.500000e-06 4.500000e-06 0.000000e+00 1.000000e+00 5.717374e-01 -1.000000e+00
307 1 9.000000e-06 4.500000e-06 0.000000e+00 1.000000e+00 5.711298e-01 1.000000e+00
308 1 9.500000e-06 4.500000e-06 0.000000e+00 1.000000e+00 5.714883e-01 -1.000000e+00
309 1 1.000000e-05 4.500000e-06 0.000000e+00 1.000000e+00 5.708783e-01 1.000000e+00
310 1 1.050000e-05 4.500000e-06 0.000000e+00 1.000000e+00 5.714604e-01 -1.000000e+00
311 1 1.100000e-05 4.500000e-06 0.000000e+00 1.000000e+00 5.708078e-01 1.000000e+00
312 1 1.150000e-05 4.500000e-06 0.000000e+00 1.000000e+00 5.710197e-01 -1.000000e+00
313 1 1.200000e-05 4.500000e-06 0.000000e+00 1.000000e+00 5.712158e-01 1.000000e+00
314 1 1.250000e-05 4.500000e-06 0.000000e+00 1.000000e+00 5.717358e-01 -1.000000e+00
315 1 1.300000e-05 4.500000e-06 0.000000e+00 1.000000e+00 5.715166e-01 1.000000e+00
316 1 1.350000e-05 4.500000e-06 0.000000e+00 1.000000e+00 5.710246e-01 -1.000000e+00
317 1 1.400000e-05 4.500000e-06 0.000000e+00 1.000000e+00 5.703535e-01 1.000000e+00
318 1 1.450000e-05 4.500000e-06 0.000000e+00 1.000000e+00 5.709302e-01 -1.000000e+00
319 1 1.500000e-05 4.500000e-06 0.000000e+00 1.000000e+00 5.717899e-01 1.000000e+00
320 1 1.550000e-05 4.500000e-06 0.000000e+00 1.000000e+00 8.083904e-01 -1.000000e+00
321 1 0.000000e+00 5.000000e-06 0.000000e+00 1.000000e+00 8.078268e-01 -1.000000e+00
322 1 5.000000e-07 5.000000e-06 0.000000e+00 1.000000e+00 5.712127e-01 1.000000e+00
323 1 1.000000e-06 5.000000e-06 0.000000e+00 1.000000e+00 5.712142e-01 -1.000000e+00
324 1 1.500000e-06 5.000000e-06 0.000000e+00 1.000000e+00 5.710247e-01 1.000000e+00
325 1 2.000000e-06 5.000000e-06 0.000000e+00 1.000000e+00 5.710622e-01 -1.000000e+00
326 1 2.500000e-06 5.000000e-06 0.000000e+00 1.000000e+00 5.711370e-01 1.000000e+00
327 1 3.000000e-06 5.000000e-06 0.000000e+00 1.000000e+00 5.719207e-01 -1.000000e+00
328 1 3.500000e-06 5.000000e-06 0.000000e+00 1.000000e+00 5.723749e-01 1.000000e+00
329 1 4.000000e-06 5.000000e-06 0.000000e+00 1.000000e+00 5.724296e-01 -1.000000e+00
330 1 4.500000e-06 5.000000e-06 0.000000e+00 1.000000e+00 5.697031e-01 1.000000e+00
331 1 5.000000e-06 5.000000e-06 0.000000e+00 1.000000e+00 5.708657e-01 -1.000000e+00
332 1 5.500000e-06 5.000000e-06 0.000000e+00 1.000000e+00 5.718427e-01 1.000000e+00
333 1 6.000000e-06 5.000000e-06 0.000000e+00 1.000000e+00 5.713525e-01 -1.000000e+00
334 1 6.500000e-06 5.000000e-06 0.000000e+00 1.000000e+00 5.712139e-01 1.000000e+00
335 1 7.000000e-06 5.000000e-06 0.000000e+00 1.000000e+00 5.711345e-01 -1.000000e+00
336 1 7.500000e-06 5.000000e-06 0.000000e+00 1.000000e+00 5.712171e-01 1.000000e+00
337 1 8.000000e-06 5.000000e-06 0.000000e+00 1.000000e+00 5.716622e-01 -1.000000e+00
338 1 8.500000e-06 5.000000e-06 0.000000e+00 1.000000e+00 5.718508e-01 1.000000e+00
339 1 9.000000e-06 5.000000e-06 0.000000e+00 1.000000e+00 5.711333e-01 -1.000000e+00
340 1 9.500000e-06 5.000000e-06 0.000000e+00 1.000000e+00 5.718452e-01 1.000000e+00
341 1 1.000000e-05 5.000000e-06 0.000000e+00 1.000000e+00 5.716564e-01 -1.000000e+00
342 1 1.050000e-05 5.000000e-06 0.000000e+00 1.000000e+00 5.717439e-01 1.000000e+00
343 1 1.100000e-05 5.000000e-06 0.000000e+00 1.000000e+00 5.719360e-01 -1.000000e+00
344 1 1.150000e-05 5.000000e-06 0.000000e+00 1.000000e+00 5.712326e-01 1.000000e+00
345 1 1.200000e-05 5.000000e-06 0.000000e+00 1.000000e+00 5.711328e-01 -1.000000e+00
346 1 1.250000e-05 5.000000e-06 0.000000e+00 1.000000e+00 5.716592e-01 1.000000e+00
347 1 1.300000e-05 5.000000e-06 0.000000e+00 1.000000e+00 5.721178e-01 -1.000000e+00
348 1 1.350000e-05 5.000000e-06 0.000000e+00 1.000000e+00 5.700402e-01 1.000000e+00
349 1 1.400000e-05 5.000000e-06 0.000000e+00 1.000000e+00 5.696489e-01 -1.000000e+00
350 1 1.450000e-05 5.000000e-06 0.000000e+00 1.000000e+00 5.704625e-01 1.000000e+00
351 1 1.500000e-05 5.000000e-06 0.000000e+00 1.000000e+00 5.707173e-01 -1.000000e+00
352 1 1.550000e-05 5.000000e-06 0.000000e+00 1.000000e+00 8.071889e-01 1.000000e+00
353 1 0.000000e+00 5.500000e-06 0.000000e+00 1.000000e+00 8.071010e-01 1.000000e+00
354 1 5.000000e-07 5.500000e-06 0.000000e+00 1.000000e+00 5.704420e-01 -1.000000e+00