ITEM: TIMESTEP
8
ITEM: NUMBER OF ATOMS
16384
ITEM: BOX BOUNDS pp pp pp
0.0 1.600000e-05
0.0 1.600000e-05
0.0 8.000000e-06
ITEM: ATOMS id type x y z crack plastic psi
1 1 0.000000e+00 0.000000e+00 0.000000e+00 1.000000e+00 7.040178e-01 -1.001465e+00
2 1 5.000000e-07 0.000000e+00 0.000000e+00 1.000000e+00 6.889201e-01 9.985352e-01
3 1 1.000000e-06 0.000000e+00 0.000000e+00 1.000000e+00 6.552202e-01 -1.001465e+00
4 1 1.500000e-06 0.000000e+00 0.000000e+00 1.000000e+00 6.430527e-01 9.985352e-01
5 1 2.000000e-06 0.000000e+00 0.000000e+00 1.000000e+00 6.429759e-01 -1.001465e+00
6 1 2.500000e-06 0.000000e+00 0.000000e+00 1.000000e+00 6.369049e-01 9.985352e-01
7 1 3.000000e-06 0.000000e+00 0.000000e+00 1.000000e+00 6.485200e-01 -1.001465e+00
8 1 3.500000e-06 0.000000e+00 0.000000e+00 1.000000e+00 6.484843e-01 9.985352e-01
9 1 4.000000e-06 0.000000e+00 0.000000e+00 1.000000e+00 6.484521e-01 -1.001465e+00
10 1 4.500000e-06 0.000000e+00 0.000000e+00 1.000000e+00 6.302234e-01 9.985352e-01
11 1 5.000000e-06 0.000000e+00 0.000000e+00 1.000000e+00 6.415001e-01 -1.001465e+00
12 1 5.500000e-06 0.000000e+00 0.000000e+00 1.000000e+00 6.281039e-01 9.985352e-01
13 1 6.000000e-06 0.000000e+00 0.000000e+00 1.000000e+00 6.278837e-01 -1.001465e+00
14 1 6.500000e-06 0.000000e+00 0.000000e+00 1.000000e+00 6.484516e-01 9.985352e-01
15 1 7.000000e-06 0.000000e+00 0.000000e+00 1.000000e+00 6.679066e-01 -1.001465e+00
16 1 7.500000e-06 0.000000e+00 0.000000e+00 1.000000e+00 6.839872e-01 9.985352e-01
17 1 8.000000e-06 0.000000e+00 0.000000e+00 1.000000e+00 6.494445e-01 -1.001465e+00
18 1 8.500000e-06 0.000000e+00 0.000000e+00 1.000000e+00 6.522393e-01 -1.001465e+00
19 1 9.000000e-06 0.000000e+00 0.000000e+00 1.000000e+00 6.459332e-01 9.985352e-01
20 1 9.500000e-06 0.000000e+00 0.000000e+00 1.000000e+00 6.402968e-01 -1.001465e+00
21 1 1.000000e-05 0.000000e+00 0.000000e+00 1.000000e+00 6.644854e-01 9.985352e-01
22 1 1.050000e-05 0.000000e+00 0.000000e+00 1.000000e+00 6.525892e-01 -1.001465e+00
23 1 1.100000e-05 0.000000e+00 0.000000e+00 1.000000e+00 6.712997e-01 9.985352e-01
24 1 1.150000e-05 0.000000e+00 0.000000e+00 1.000000e+00 6.713683e-01 -1.001465e+00
25 1 1.200000e-05 0.000000e+00 0.000000e+00 1.000000e+00 6.520000e-01 9.985352e-01
26 1 1.250000e-05 0.000000e+00 0.000000e+00 1.000000e+00 6.469575e-01 -1.001465e+00
27 1 1.300000e-05 0.000000e+00 0.000000e+00 1.000000e+00 6.565608e-01 9.985352e-01
28 1 1.350000e-05 0.000000e+00 0.000000e+00 1.000000e+00 6.497342e-01 -1.001465e+00
29 1 1.400000e-05 0.000000e+00 0.000000e+00 1.000000e+00 6.445396e-01 9.985352e-01
30 1 1.450000e-05 0.000000e+00 0.000000e+00 1.000000e+00 6.429399e-01 -1.001465e+00
31 1 1.500000e-05 0.000000e+00 0.000000e+00 1.000000e+00 6.590116e-01 -1.001465e+00
32 1 1.550000e-05 0.000000e+00 0.000000e+00 1.000000e+00 7.593654e-01 9.985352e-01
33 1 0.000000e+00 5.000000e-07 0.000000e+00 1.000000e+00 5.180342e-01 9.985352e-01
34 1 5.000000e-07 5.000000e-07 0.000000e+00 1.000000e+00 4.722107e-01 -1.001465e+00
35 1 1.000000e-06 5.000000e-07 0.000000e+00 1.000000e+00 4.306994e-01 9.985352e-01
36 1 1.500000e-06 5.000000e-07 0.000000e+00 1.000000e+00 4.372173e-01 -1.001465e+00
37 1 2.000000e-06 5.000000e-07 0.000000e+00 1.000000e+00 4.364049e-01 9.985352e-01
38 1 2.500000e-06 5.000000e-07 0.000000e+00 1.000000e+00 4.437447e-01 -1.001465e+00
39 1 3.000000e-06 5.000000e-07 0.000000e+00 1.000000e+00 4.282961e-01 9.985352e-01
40 1 3.500000e-06 5.000000e-07 0.000000e+00 1.000000e+00 4.453426e-01 -1.001465e+00
41 1 4.000000e-06 5.000000e-07 0.000000e+00 1.000000e+00 4.465224e-01 9.985352e-01
42 1 4.500000e-06 5.000000e-07 0.000000e+00 1.000000e+00 4.392135e-01 -1.001465e+00
43 1 5.000000e-06 5.000000e-07 0.000000e+00 1.000000e+00 4.229119e-01 9.985352e-01
44 1 5.500000e-06 5.000000e-07 0.000000e+00 1.000000e+00 3.937657e-01 -1.001465e+00
45 1 6.000000e-06 5.000000e-07 0.000000e+00 1.000000e+00 4.199583e-01 9.985352e-01
46 1 6.500000e-06 5.000000e-07 0.000000e+00 1.000000e+00 4.653244e-01 -1.001465e+00
47 1 7.000000e-06 5.000000e-07 0.000000e+00 1.000000e+00 4.721552e-01 9.985352e-01
48 1 7.500000e-06 5.000000e-07 0.000000e+00 1.000000e+00 5.391989e-01 -1.001465e+00
49 1 8.000000e-06 5.000000e-07 0.000000e+00 1.000000e+00 4.615221e-01 9.985352e-01
50 1 8.500000e-06 5.000000e-07 0.000000e+00 1.000000e+00 4.619579e-01 9.985352e-01
51 1 9.000000e-06 5.000000e-07 0.000000e+00 1.000000e+00 4.454721e-01 -1.001465e+00
52 1 9.500000e-06 5.000000e-07 0.000000e+00 1.000000e+00 4.634820e-01 9.985352e-01
53 1 1.000000e-05 5.000000e-07 0.000000e+00 1.000000e+00 4.439182e-01 -1.001465e+00
54 1 1.050000e-05 5.000000e-07 0.000000e+00 1.000000e+00 4.632084e-01 9.985352e-01
55 1 1.100000e-05 5.000000e-07 0.000000e+00 1.000000e+00 4.686199e-01 -1.001465e+00
56 1 1.150000e-05 5.000000e-07 0.000000e+00 1.000000e+00 4.513813e-01 9.985352e-01
57 1 1.200000e-05 5.000000e-07 0.000000e+00 1.000000e+00 4.325927e-01 -1.001465e+00
58 1 1.250000e-05 5.000000e-07 0.000000e+00 1.000000e+00 4.572167e-01 9.985352e-01
59 1 1.300000e-05 5.000000e-07 0.000000e+00 1.000000e+00 4.705142e-01 -1.001465e+00
60 1 1.350000e-05 5.000000e-07 0.000000e+00 1.000000e+00 4.586966e-01 9.985352e-01
61 1 1.400000e-05 5.000000e-07 0.000000e+00 1.000000e+00 4.519521e-01 -1.001465e+00
62 1 1.450000e-05 5.000000e-07 0.000000e+00 1.000000e+00 4.587294e-01 9.985352e-01
63 1 1.500000e-05 5.000000e-07 0.000000e+00 1.000000e+00 4.928293e-01 9.985352e-01
64 1 1.550000e-05 5.000000e-07 0.000000e+00 1.000000e+00 6.030938e-01 -1.001465e+00
65 1 0.000000e+00 1.000000e-06 0.000000e+00 1.000000e+00 5.597421e-01 -1.001465e+00
66 1 5.000000e-07 1.000000e-06 0.000000e+00 1.000000e+00 4.961759e-01 9.985352e-01
67 1 1.000000e-06 1.000000e-06 0.000000e+00 1.000000e+00 4.369654e-01 -1.001465e+00
68 1 1.500000e-06 1.000000e-06 0.000000e+00 1.000000e+00 4.307020e-01 9.985352e-01
69 1 2.000000e-06 1.000000e-06 0.000000e+00 1.000000e+00 4.277676e-01 -1.001465e+00
70 1 2.500000e-06 1.000000e-06 0.000000e+00 1.000000e+00 4.282718e-01 9.985352e-01
71 1 3.000000e-06 1.000000e-06 0.000000e+00 1.000000e+00 4.143073e-01 -1.001465e+00
72 1 3.500000e-06 1.000000e-06 0.000000e+00 1.000000e+00 4.465560e-01 9.985352e-01
73 1 4.000000e-06 1.000000e-06 0.000000e+00 1.000000e+00 4.709087e-01 -1.001465e+00
74 1 4.500000e-06 1.000000e-06 0.000000e+00 1.000000e+00 4.964691e-01 9.985352e-01
75 1 5.000000e-06 1.000000e-06 0.000000e+00 1.000000e+00 4.901500e-01 -1.001465e+00
76 1 5.500000e-06 1.000000e-06 0.000000e+00 1.000000e+00 4.703323e-01 9.985352e-01
77 1 6.000000e-06 1.000000e-06 0.000000e+00 1.000000e+00 4.901836e-01 -1.001465e+00
78 1 6.500000e-06 1.000000e-06 0.000000e+00 1.000000e+00 4.307716e-01 9.985352e-01
79 1 7.000000e-06 1.000000e-06 0.000000e+00 1.000000e+00 4.160945e-01 -1.001465e+00
80 1 7.500000e-06 1.000000e-06 0.000000e+00 1.000000e+00 4.877187e-01 9.985352e-01
81 1 8.000000e-06 1.000000e-06 0.000000e+00 1.000000e+00 4.344530e-01 -1.001465e+00
82 1 8.500000e-06 1.000000e-06 0.000000e+00 1.000000e+00 4.564285e-01 -1.001465e+00
83 1 9.000000e-06 1.000000e-06 0.000000e+00 1.000000e+00 4.601269e-01 9.985352e-01
84 1 9.500000e-06 1.000000e-06 0.000000e+00 1.000000e+00 4.782522e-01 -1.001465e+00
85 1 1.000000e-05 1.000000e-06 0.000000e+00 1.000000e+00 4.372755e-01 9.985352e-01
86 1 1.050000e-05 1.000000e-06 0.000000e+00 1.000000e+00 4.580720e-01 -1.001465e+00
87 1 1.100000e-05 1.000000e-06 0.000000e+00 1.000000e+00 4.602389e-01 9.985352e-01
88 1 1.150000e-05 1.000000e-06 0.000000e+00 1.000000e+00 4.546552e-01 -1.001465e+00
89 1 1.200000e-05 1.000000e-06 0.000000e+00 1.000000e+00 4.522795e-01 9.985352e-01
90 1 1.250000e-05 1.000000e-06 0.000000e+00 1.000000e+00 4.698777e-01 -1.001465e+00
91 1 1.300000e-05 1.000000e-06 0.000000e+00 1.000000e+00 4.541595e-01 9.985352e-01
92 1 1.350000e-05 1.000000e-06 0.000000e+00 1.000000e+00 4.537090e-01 -1.001465e+00
93 1 1.400000e-05 1.000000e-06 0.000000e+00 1.000000e+00 4.548992e-01 9.985352e-01
94 1 1.450000e-05 1.000000e-06 0.000000e+00 1.000000e+00 4.829190e-01 -1.001465e+00
95 1 1.500000e-05 1.000000e-06 0.000000e+00 1.000000e+00 4.915402e-01 -1.001465e+00
96 1 1.550000e-05 1.000000e-06 0.000000e+00 1.000000e+00 6.283029e-01 9.985352e-01
97 1 0.000000e+00 1.500000e-06 0.000000e+00 1.000000e+00 5.963742e-01 9.985352e-01
98 1 5.000000e-07 1.500000e-06 0.000000e+00 1.000000e+00 4.887954e-01 -1.001465e+00
99 1 1.000000e-06 1.500000e-06 0.000000e+00 1.000000e+00 4.503909e-01 9.985352e-01
100 1 1.500000e-06 1.500000e-06 0.000000e+00 1.000000e+00 4.705675e-01 -1.001465e+00
101 1 2.000000e-06 1.500000e-06 0.000000e+00 1.000000e+00 4.722498e-01 9.985352e-01
102 1 2.500000e-06 1.500000e-06 0.000000e+00 1.000000e+00 4.653391e-01 -1.001465e+00
103 1 3.000000e-06 1.500000e-06 0.000000e+00 1.000000e+00 4.585250e-01 9.985352e-01
104 1 3.500000e-06 1.500000e-06 0.000000e+00 1.000000e+00 4.585137e-01 -1.001465e+00
105 1 4.000000e-06 1.500000e-06 0.000000e+00 1.000000e+00 4.789337e-01 9.985352e-01
106 1 4.500000e-06 1.500000e-06 0.000000e+00 1.000000e+00 4.866446e-01 -1.001465e+00
107 1 5.000000e-06 1.500000e-06 0.000000e+00 1.000000e+00 4.864091e-01 9.985352e-01
108 1 5.500000e-06 1.500000e-06 0.000000e+00 1.000000e+00 4.816595e-01 -1.001465e+00
109 1 6.000000e-06 1.500000e-06 0.000000e+00 1.000000e+00 4.549031e-01 9.985352e-01
110 1 6.500000e-06 1.500000e-06 0.000000e+00 1.000000e+00 4.731327e-01 -1.001465e+00
111 1 7.000000e-06 1.500000e-06 0.000000e+00 1.000000e+00 4.753296e-01 9.985352e-01
112 1 7.500000e-06 1.500000e-06 0.000000e+00 1.000000e+00 4.674405e-01 -1.001465e+00
113 1 8.000000e-06 1.500000e-06 0.000000e+00 1.000000e+00 4.570898e-01 9.985352e-01
114 1 8.500000e-06 1.500000e-06 0.000000e+00 1.000000e+00 4.603750e-01 9.985352e-01
115 1 9.000000e-06 1.500000e-06 0.000000e+00 1.000000e+00 4.538073e-01 -1.001465e+00
116 1 9.500000e-06 1.500000e-06 0.000000e+00 1.000000e+00 4.513200e-01 9.985352e-01
117 1 1.000000e-05 1.500000e-06 0.000000e+00 1.000000e+00 4.379607e-01 -1.001465e+00
118 1 1.050000e-05 1.500000e-06 0.000000e+00 1.000000e+00 4.541618e-01 9.985352e-01
119 1 1.100000e-05 1.500000e-06 0.000000e+00 1.000000e+00 4.585173e-01 -1.001465e+00
120 1 1.150000e-05 1.500000e-06 0.000000e+00 1.000000e+00 4.379820e-01 9.985352e-01
121 1 1.200000e-05 1.500000e-06 0.000000e+00 1.000000e+00 4.735314e-01 -1.001465e+00
122 1 1.250000e-05 1.500000e-06 0.000000e+00 1.000000e+00 4.770189e-01 9.985352e-01
123 1 1.300000e-05 1.500000e-06 0.000000e+00 1.000000e+00 4.769316e-01 -1.001465e+00
124 1 1.350000e-05 1.500000e-06 0.000000e+00 1.000000e+00 4.681968e-01 9.985352e-01
125 1 1.400000e-05 1.500000e-06 0.000000e+00 1.000000e+00 4.734872e-01 9.985352e-01
126 1 1.450000e-05 1.500000e-06 0.000000e+00 1.000000e+00 5.029018e-01 -1.001465e+00
127 1 1.500000e-05 1.500000e-06 0.000000e+00 1.000000e+00 4.807028e-01 9.985352e-01
128 1 1.550000e-05 1.500000e-06 0.000000e+00 1.000000e+00 6.415471e-01 -1.001465e+00
129 1 0.000000e+00 2.000000e-06 0.000000e+00 1.000000e+00 6.151116e-01 -1.001465e+00
130 1 5.000000e-07 2.000000e-06 0.000000e+00 1.000000e+00 4.631512e-01 9.985352e-01
131 1 1.000000e-06 2.000000e-06 0.000000e+00 1.000000e+00 4.757731e-01 -1.001465e+00
132 1 1.500000e-06 2.000000e-06 0.000000e+00 1.000000e+00 4.686442e-01 9.985352e-01
133 1 2.000000e-06 2.000000e-06 0.000000e+00 1.000000e+00 4.490166e-01 -1.001465e+00
134 1 2.500000e-06 2.000000e-06 0.000000e+00 1.000000e+00 4.617907e-01 9.985352e-01
135 1 3.000000e-06 2.000000e-06 0.000000e+00 1.000000e+00 4.737232e-01 -1.001465e+00
136 1 3.500000e-06 2.000000e-06 0.000000e+00 1.000000e+00 4.585641e-01 9.985352e-01
137 1 4.000000e-06 2.000000e-06 0.000000e+00 1.000000e+00 4.822771e-01 -1.001465e+00
138 1 4.500000e-06 2.000000e-06 0.000000e+00 1.000000e+00 4.812922e-01 9.985352e-01
139 1 5.000000e-06 2.000000e-06 0.000000e+00 1.000000e+00 4.910886e-01 -1.001465e+00
140 1 5.500000e-06 2.000000e-06 0.000000e+00 1.000000e+00 4.395991e-01 9.985352e-01
141 1 6.000000e-06 2.000000e-06 0.000000e+00 1.000000e+00 4.772165e-01 -1.001465e+00
142 1 6.500000e-06 2.000000e-06 0.000000e+00 1.000000e+00 4.471978e-01 9.985352e-01
143 1 7.000000e-06 2.000000e-06 0.000000e+00 1.000000e+00 4.482792e-01 -1.001465e+00
144 1 7.500000e-06 2.000000e-06 0.000000e+00 1.000000e+00 4.557256e-01 9.985352e-01
145 1 8.000000e-06 2.000000e-06 0.000000e+00 1.000000e+00 4.581215e-01 -1.001465e+00
146 1 8.500000e-06 2.000000e-06 0.000000e+00 1.000000e+00 4.568453e-01 9.985352e-01
147 1 9.000000e-06 2.000000e-06 0.000000e+00 1.000000e+00 4.672392e-01 9.985352e-01
148 1 9.500000e-06 2.000000e-06 0.000000e+00 1.000000e+00 4.453087e-01 -1.001465e+00
149 1 1.000000e-05 2.000000e-06 0.000000e+00 1.000000e+00 4.606263e-01 9.985352e-01
150 1 1.050000e-05 2.000000e-06 0.000000e+00 1.000000e+00 4.600628e-01 -1.001465e+00
151 1 1.100000e-05 2.000000e-06 0.000000e+00 1.000000e+00 4.600855e-01 9.985352e-01
152 1 1.150000e-05 2.000000e-06 0.000000e+00 1.000000e+00 4.536667e-01 -1.001465e+00
153 1 1.200000e-05 2.000000e-06 0.000000e+00 1.000000e+00 4.669414e-01 9.985352e-01
154 1 1.250000e-05 2.000000e-06 0.000000e+00 1.000000e+00 4.721565e-01 -1.001465e+00
155 1 1.300000e-05 2.000000e-06 0.000000e+00 1.000000e+00 4.714923e-01 9.985352e-01
156 1 1.350000e-05 2.000000e-06 0.000000e+00 1.000000e+00 4.560939e-01 9.985352e-01
157 1 1.400000e-05 2.000000e-06 0.000000e+00 1.000000e+00 4.701113e-01 -1.001465e+00
158 1 1.450000e-05 2.000000e-06 0.000000e+00 1.000000e+00 4.616668e-01 9.985352e-01
159 1 1.500000e-05 2.000000e-06 0.000000e+00 1.000000e+00 4.611523e-01 -1.001465e+00
160 1 1.550000e-05 2.000000e-06 0.000000e+00 1.000000e+00 6.382638e-01 9.985352e-01
161 1 0.000000e+00 2.500000e-06 0.000000e+00 1.000000e+00 6.312075e-01 9.985352e-01
162 1 5.000000e-07 2.500000e-06 0.000000e+00 1.000000e+00 4.811468e-01 -1.001465e+00
163 1 1.000000e-06 2.500000e-06 0.000000e+00 1.000000e+00 4.791637e-01 9.985352e-01
164 1 1.500000e-06 2.500000e-06 0.000000e+00 1.000000e+00 4.799229e-01 -1.001465e+00
165 1 2.000000e-06 2.500000e-06 0.000000e+00 1.000000e+00 4.656869e-01 9.985352e-01
166 1 2.500000e-06 2.500000e-06 0.000000e+00 1.000000e+00 4.455002e-01 -1.001465e+00
167 1 3.000000e-06 2.500000e-06 0.000000e+00 1.000000e+00 4.631401e-01 9.985352e-01
168 1 3.500000e-06 2.500000e-06 0.000000e+00 1.000000e+00 4.601170e-01 -1.001465e+00
169 1 4.000000e-06 2.500000e-06 0.000000e+00 1.000000e+00 4.733535e-01 9.985352e-01
170 1 4.500000e-06 2.500000e-06 0.000000e+00 1.000000e+00 4.715343e-01 -1.001465e+00
171 1 5.000000e-06 2.500000e-06 0.000000e+00 1.000000e+00 4.773314e-01 9.985352e-01
172 1 5.500000e-06 2.500000e-06 0.000000e+00 1.000000e+00 4.851407e-01 -1.001465e+00
173 1 6.000000e-06 2.500000e-06 0.000000e+00 1.000000e+00 4.817387e-01 9.985352e-01
174 1 6.500000e-06 2.500000e-06 0.000000e+00 1.000000e+00 4.828871e-01 -1.001465e+00
175 1 7.000000e-06 2.500000e-06 0.000000e+00 1.000000e+00 4.739298e-01 9.985352e-01
176 1 7.500000e-06 2.500000e-06 0.000000e+00 1.000000e+00 4.874739e-01 -1.001465e+00
177 1 8.000000e-06 2.500000e-06 0.000000e+00 1.000000e+00 4.906512e-01 9.985352e-01
178 1 8.500000e-06 2.500000e-06 0.000000e+00 1.000000e+00 4.942954e-01 -1.001465e+00
179 1 9.000000e-06 2.500000e-06 0.000000e+00 1.000000e+00 4.724985e-01 9.985352e-01
180 1 9.500000e-06 2.500000e-06 0.000000e+00 1.000000e+00 4.801861e-01 -1.001465e+00
181 1 1.000000e-05 2.500000e-06 0.000000e+00 1.000000e+00 4.496332e-01 9.985352e-01
182 1 1.050000e-05 2.500000e-06 0.000000e+00 1.000000e+00 4.740672e-01 -1.001465e+00
183 1 1.100000e-05 2.500000e-06 0.000000e+00 1.000000e+00 4.663558e-01 9.985352e-01
184 1 1.150000e-05 2.500000e-06 0.000000e+00 1.000000e+00 4.781205e-01 -1.001465e+00
185 1 1.200000e-05 2.500000e-06 0.000000e+00 1.000000e+00 5.188469e-01 9.985352e-01
186 1 1.250000e-05 2.500000e-06 0.000000e+00 1.000000e+00 4.913360e-01 -1.001465e+00
187 1 1.300000e-05 2.500000e-06 0.000000e+00 1.000000e+00 5.084644e-01 9.985352e-01
188 1 1.350000e-05 2.500000e-06 0.000000e+00 1.000000e+00 4.996494e-01 -1.001465e+00
189 1 1.400000e-05 2.500000e-06 0.000000e+00 1.000000e+00 4.944852e-01 9.985352e-01
190 1 1.450000e-05 2.500000e-06 0.000000e+00 1.000000e+00 4.804836e-01 -1.001465e+00
191 1 1.500000e-05 2.500000e-06 0.000000e+00 1.000000e+00 4.888789e-01 9.985352e-01
192 1 1.550000e-05 2.500000e-06 0.000000e+00 1.000000e+00 6.289814e-01 -1.001465e+00
193 1 0.000000e+00 3.000000e-06 0.000000e+00 1.000000e+00 6.595429e-01 -1.001465e+00
194 1 5.000000e-07 3.000000e-06 0.000000e+00 1.000000e+00 4.601601e-01 9.985352e-01
195 1 1.000000e-06 3.000000e-06 0.000000e+00 1.000000e+00 4.672963e-01 -1.001465e+00
196 1 1.500000e-06 3.000000e-06 0.000000e+00 1.000000e+00 4.706126e-01 9.985352e-01
197 1 2.000000e-06 3.000000e-06 0.000000e+00 1.000000e+00 4.445590e-01 -1.001465e+00
198 1 2.500000e-06 3.000000e-06 0.000000e+00 1.000000e+00 4.446465e-01 9.985352e-01
199 1 3.000000e-06 3.000000e-06 0.000000e+00 1.000000e+00 4.620965e-01 -1.001465e+00
200 1 3.500000e-06 3.000000e-06 0.000000e+00 1.000000e+00 4.668513e-01 9.985352e-01
201 1 4.000000e-06 3.000000e-06 0.000000e+00 1.000000e+00 4.585591e-01 -1.001465e+00
202 1 4.500000e-06 3.000000e-06 0.000000e+00 1.000000e+00 4.733761e-01 9.985352e-01
203 1 5.000000e-06 3.000000e-06 0.000000e+00 1.000000e+00 4.984729e-01 -1.001465e+00
204 1 5.500000e-06 3.000000e-06 0.000000e+00 1.000000e+00 4.862192e-01 9.985352e-01
205 1 6.000000e-06 3.000000e-06 0.000000e+00 1.000000e+00 4.838063e-01 -1.001465e+00
206 1 6.500000e-06 3.000000e-06 0.000000e+00 1.000000e+00 4.905797e-01 9.985352e-01
207 1 7.000000e-06 3.000000e-06 0.000000e+00 1.000000e+00 5.042573e-01 -1.001465e+00
208 1 7.500000e-06 3.000000e-06 0.000000e+00 1.000000e+00 4.623913e-01 9.985352e-01
209 1 8.000000e-06 3.000000e-06 0.000000e+00 1.000000e+00 4.348709e-01 -1.001465e+00
210 1 8.500000e-06 3.000000e-06 0.000000e+00 1.000000e+00 4.410169e-01 9.985352e-01
211 1 9.000000e-06 3.000000e-06 0.000000e+00 1.000000e+00 4.404738e-01 -1.001465e+00
212 1 9.500000e-06 3.000000e-06 0.000000e+00 1.000000e+00 4.763102e-01 9.985352e-01
213 1 1.000000e-05 3.000000e-06 0.000000e+00 1.000000e+00 4.405579e-01 -1.001465e+00
214 1 1.050000e-05 3.000000e-06 0.000000e+00 1.000000e+00 4.664886e-01 9.985352e-01
215 1 1.100000e-05 3.000000e-06 0.000000e+00 1.000000e+00 5.170078e-01 -1.001465e+00
216 1 1.150000e-05 3.000000e-06 0.000000e+00 1.000000e+00 5.258680e-01 9.985352e-01
217 1 1.200000e-05 3.000000e-06 0.000000e+00 1.000000e+00 4.743676e-01 -1.001465e+00
218 1 1.250000e-05 3.000000e-06 0.000000e+00 1.000000e+00 4.842893e-01 9.985352e-01
219 1 1.300000e-05 3.000000e-06 0.000000e+00 1.000000e+00 4.979116e-01 -1.001465e+00
220 1 1.350000e-05 3.000000e-06 0.000000e+00 1.000000e+00 4.943849e-01 9.985352e-01
221 1 1.400000e-05 3.000000e-06 0.000000e+00 1.000000e+00 4.884388e-01 -1.001465e+00
222 1 1.450000e-05 3.000000e-06 0.000000e+00 1.000000e+00 4.944445e-01 9.985352e-01
223 1 1.500000e-05 3.000000e-06 0.000000e+00 1.000000e+00 4.915361e-01 -1.001465e+00
224 1 1.550000e-05 3.000000e-06 0.000000e+00 1.000000e+00 6.800199e-01 9.985352e-01
225 1 0.000000e+00 3.500000e-06 0.000000e+00 1.000000e+00 6.484514e-01 9.985352e-01
226 1 5.000000e-07 3.500000e-06 0.000000e+00 1.000000e+00 4.585274e-01 -1.001465e+00
227 1 1.000000e-06 3.500000e-06 0.000000e+00 1.000000e+00 4.584944e-01 9.985352e-01
228 1 1.500000e-06 3.500000e-06 0.000000e+00 1.000000e+00 4.600740e-01 -1.001465e+00
229 1 2.000000e-06 3.500000e-06 0.000000e+00 1.000000e+00 4.519091e-01 9.985352e-01
230 1 2.500000e-06 3.500000e-06 0.000000e+00 1.000000e+00 4.498632e-01 -1.001465e+00
231 1 3.000000e-06 3.500000e-06 0.000000e+00 1.000000e+00 4.532557e-01 9.985352e-01
232 1 3.500000e-06 3.500000e-06 0.000000e+00 1.000000e+00 4.538355e-01 -1.001465e+00
233 1 4.000000e-06 3.500000e-06 0.000000e+00 1.000000e+00 4.432877e-01 9.985352e-01
234 1 4.500000e-06 3.500000e-06 0.000000e+00 1.000000e+00 4.006288e-01 -1.001465e+00
235 1 5.000000e-06 3.500000e-06 0.000000e+00 1.000000e+00 4.397214e-01 9.985352e-01
236 1 5.500000e-06 3.500000e-06 0.000000e+00 1.000000e+00 4.819197e-01 -1.001465e+00
237 1 6.000000e-06 3.500000e-06 0.000000e+00 1.000000e+00 4.601001e-01 9.985352e-01
238 1 6.500000e-06 3.500000e-06 0.000000e+00 1.000000e+00 4.601829e-01 -1.001465e+00
239 1 7.000000e-06 3.500000e-06 0.000000e+00 1.000000e+00 4.600906e-01 9.985352e-01
240 1 7.500000e-06 3.500000e-06 0.000000e+00 1.000000e+00 4.409006e-01 -1.001465e+00
241 1 8.000000e-06 3.500000e-06 0.000000e+00 1.000000e+00 4.619050e-01 9.985352e-01
242 1 8.500000e-06 3.500000e-06 0.000000e+00 1.000000e+00 4.378035e-01 -1.001465e+00
243 1 9.000000e-06 3.500000e-06 0.000000e+00 1.000000e+00 4.720812e-01 9.985352e-01
244 1 9.500000e-06 3.500000e-06 0.000000e+00 1.000000e+00 4.440436e-01 -1.001465e+00
245 1 1.000000e-05 3.500000e-06 0.000000e+00 1.000000e+00 4.372912e-01 9.985352e-01
246 1 1.050000e-05 3.500000e-06 0.000000e+00 1.000000e+00 4.144367e-01 -1.001465e+00
247 1 1.100000e-05 3.500000e-06 0.000000e+00 1.000000e+00 4.547190e-01 9.985352e-01
248 1 1.150000e-05 3.500000e-06 0.000000e+00 1.000000e+00 4.846369e-01 -1.001465e+00
249 1 1.200000e-05 3.500000e-06 0.000000e+00 1.000000e+00 4.585084e-01 9.985352e-01
250 1 1.250000e-05 3.500000e-06 0.000000e+00 1.000000e+00 4.653441e-01 -1.001465e+00
251 1 1.300000e-05 3.500000e-06 0.000000e+00 1.000000e+00 4.647893e-01 9.985352e-01
252 1 1.350000e-05 3.500000e-06 0.000000e+00 1.000000e+00 4.557958e-01 -1.001465e+00
253 1 1.400000e-05 3.500000e-06 0.000000e+00 1.000000e+00 4.416641e-01 9.985352e-01
254 1 1.450000e-05 3.500000e-06 0.000000e+00 1.000000e+00 4.438707e-01 -1.001465e+00
255 1 1.500000e-05 3.500000e-06 0.000000e+00 1.000000e+00 4.400075e-01 9.985352e-01
256 1 1.550000e-05 3.500000e-06 0.000000e+00 1.000000e+00 6.469819e-01 -1.001465e+00
257 1 0.000000e+00 4.000000e-06 0.000000e+00 1.000000e+00 6.508206e-01 -1.001465e+00
258 1 5.000000e-07 4.000000e-06 0.000000e+00 1.000000e+00 4.601447e-01 9.985352e-01
259 1 1.000000e-06 4.000000e-06 0.000000e+00 1.000000e+00 4.601109e-01 -1.001465e+00
260 1 1.500000e-06 4.000000e-06 0.000000e+00 1.000000e+00 4.632710e-01 9.985352e-01
261 1 2.000000e-06 4.000000e-06 0.000000e+00 1.000000e+00 4.590849e-01 -1.001465e+00
262 1 2.500000e-06 4.000000e-06 0.000000e+00 1.000000e+00 4.618762e-01 9.985352e-01
263 1 3.000000e-06 4.000000e-06 0.000000e+00 1.000000e+00 4.793307e-01 -1.001465e+00
264 1 3.500000e-06 4.000000e-06 0.000000e+00 1.000000e+00 4.832473e-01 9.985352e-01
265 1 4.000000e-06 4.000000e-06 0.000000e+00 1.000000e+00 4.724702e-01 -1.001465e+00
266 1 4.500000e-06 4.000000e-06 0.000000e+00 1.000000e+00 5.017337e-01 9.985352e-01
267 1 5.000000e-06 4.000000e-06 0.000000e+00 1.000000e+00 4.920159e-01 -1.001465e+00
268 1 5.500000e-06 4.000000e-06 0.000000e+00 1.000000e+00 4.814745e-01 9.985352e-01
269 1 6.000000e-06 4.000000e-06 0.000000e+00 1.000000e+00 4.849966e-01 -1.001465e+00
270 1 6.500000e-06 4.000000e-06 0.000000e+00 1.000000e+00 4.585427e-01 9.985352e-01
271 1 7.000000e-06 4.000000e-06 0.000000e+00 1.000000e+00 4.754636e-01 -1.001465e+00
272 1 7.500000e-06 4.000000e-06 0.000000e+00 1.000000e+00 4.790257e-01 9.985352e-01
273 1 8.000000e-06 4.000000e-06 0.000000e+00 1.000000e+00 4.739440e-01 -1.001465e+00
274 1 8.500000e-06 4.000000e-06 0.000000e+00 1.000000e+00 4.614997e-01 9.985352e-01
275 1 9.000000e-06 4.000000e-06 0.000000e+00 1.000000e+00 4.668508e-01 -1.001465e+00
276 1 9.500000e-06 4.000000e-06 0.000000e+00 1.000000e+00 4.585882e-01 9.985352e-01
277 1 1.000000e-05 4.000000e-06 0.000000e+00 1.000000e+00 4.585624e-01 -1.001465e+00
278 1 1.050000e-05 4.000000e-06 0.000000e+00 1.000000e+00 4.564641e-01 9.985352e-01
279 1 1.100000e-05 4.000000e-06 0.000000e+00 1.000000e+00 4.536484e-01 -1.001465e+00
280 1 1.150000e-05 4.000000e-06 0.000000e+00 1.000000e+00 4.614786e-01 9.985352e-01
281 1 1.200000e-05 4.000000e-06 0.000000e+00 1.000000e+00 4.738761e-01 -1.001465e+00
282 1 1.250000e-05 4.000000e-06 0.000000e+00 1.000000e+00 4.721996e-01 9.985352e-01
283 1 1.300000e-05 4.000000e-06 0.000000e+00 1.000000e+00 4.686343e-01 -1.001465e+00
284 1 1.350000e-05 4.000000e-06 0.000000e+00 1.000000e+00 4.604902e-01 9.985352e-01
285 1 1.400000e-05 4.000000e-06 0.000000e+00 1.000000e+00 4.658840e-01 -1.001465e+00
286 1 1.450000e-05 4.000000e-06 0.000000e+00 1.000000e+00 4.637814e-01 9.985352e-01
287 1 1.500000e-05 4.000000e-06 0.000000e+00 1.000000e+00 4.620726e-01 -1.001465e+00
288 1 1.550000e-05 4.000000e-06 0.000000e+00 1.000000e+00 6.534066e-01 9.985352e-01
289 1 0.000000e+00 4.500000e-06 0.000000e+00 1.000000e+00 6.423282e-01 9.985352e-01
290 1 5.000000e-07 4.500000e-06 0.000000e+00 1.000000e+00 4.602630e-01 -1.001465e+00
291 1 1.000000e-06 4.500000e-06 0.000000e+00 1.000000e+00 4.602271e-01 9.985352e-01
292 1 1.500000e-06 4.500000e-06 0.000000e+00 1.000000e+00 4.602568e-01 -1.001465e+00
293 1 2.000000e-06 4.500000e-06 0.000000e+00 1.000000e+00 4.640676e-01 9.985352e-01
294 1 2.500000e-06 4.500000e-06 0.000000e+00 1.000000e+00 4.554926e-01 -1.001465e+00
295 1 3.000000e-06 4.500000e-06 0.000000e+00 1.000000e+00 4.912769e-01 9.985352e-01
296 1 3.500000e-06 4.500000e-06 0.000000e+00 1.000000e+00 4.755134e-01 -1.001465e+00
297 1 4.000000e-06 4.500000e-06 0.000000e+00 1.000000e+00 4.729480e-01 9.985352e-01
298 1 4.500000e-06 4.500000e-06 0.000000e+00 1.000000e+00 4.415258e-01 -1.001465e+00
299 1 5.000000e-06 4.500000e-06 0.000000e+00 1.000000e+00 4.734437e-01 9.985352e-01
300 1 5.500000e-06 4.500000e-06 0.000000e+00 1.000000e+00 4.682510e-01 -1.001465e+00
301 1 6.000000e-06 4.500000e-06 0.000000e+00 1.000000e+00 4.563980e-01 9.985352e-01
302 1 6.500000e-06 4.500000e-06 0.000000e+00 1.000000e+00 4.618400e-01 -1.001465e+00
303 1 7.000000e-06 4.500000e-06 0.000000e+00 1.000000e+00 4.600619e-01 9.985352e-01
304 1 7.500000e-06 4.500000e-06 0.000000e+00 1.000000e+00 4.648004e-01 -1.001465e+00
305 1 8.000000e-06 4.500000e-06 0.000000e+00 1.000000e+00 4.719485e-01 9.985352e-01
306 1 8.500000e-06 4.500000e-06 0.000000e+00 1.000000e+00 4.701003e-01 -1.001465e+00
307 1 9.000000e-06 4.500000e-06 0.000000e+00 1.000000e+00 4.584916e-01 9.985352e-01
308 1 9.500000e-06 4.500000e-06 0.000000e+00 1.000000e+00 4.653402e-01 -1.001465e+00
309 1 1.000000e-05 4.500000e-06 0.000000e+00 1.000000e+00 4.536857e-01 9.985352e-01
310 1 1.050000e-05 4.500000e-06 0.000000e+00 1.000000e+00 4.648087e-01 -1.001465e+00
311 1 1.100000e-05 4.500000e-06 0.000000e+00 1.000000e+00 4.523384e-01 9.985352e-01
312 1 1.150000e-05 4.500000e-06 0.000000e+00 1.000000e+00 4.563874e-01 -1.001465e+00
313 1 1.200000e-05 4.500000e-06 0.000000e+00 1.000000e+00 4.601352e-01 9.985352e-01
314 1 1.250000e-05 4.500000e-06 0.000000e+00 1.000000e+00 4.700701e-01 -1.001465e+00
315 1 1.300000e-05 4.500000e-06 0.000000e+00 1.000000e+00 4.658814e-01 9.985352e-01
316 1 1.350000e-05 4.500000e-06 0.000000e+00 1.000000e+00 4.564807e-01 -1.001465e+00
317 1 1.400000e-05 4.500000e-06 0.000000e+00 1.000000e+00 4.436583e-01 9.985352e-01
318 1 1.450000e-05 4.500000e-06 0.000000e+00 1.000000e+00 4.546770e-01 -1.001465e+00
319 1 1.500000e-05 4.500000e-06 0.000000e+00 1.000000e+00 4.711040e-01 9.985352e-01
320 1 1.550000e-05 4.500000e-06 0.000000e+00 1.000000e+00 6.616051e-01 -1.001465e+00
321 1 0.000000e+00 5.000000e-06 0.000000e+00 1.000000e+00 6.508360e-01 -1.001465e+00
322 1 5.000000e-07 5.000000e-06 0.000000e+00 1.000000e+00 4.600743e-01 9.985352e-01
323 1 1.000000e-06 5.000000e-06 0.000000e+00 1.000000e+00 4.601039e-01 -1.001465e+00
324 1 1.500000e-06 5.000000e-06 0.000000e+00 1.000000e+00 4.564820e-01 9.985352e-01
325 1 2.000000e-06 5.000000e-06 0.000000e+00 1.000000e+00 4.571990e-01 -1.001465e+00
326 1 2.500000e-06 5.000000e-06 0.000000e+00 1.000000e+00 4.586293e-01 9.985352e-01
327 1 3.000000e-06 5.000000e-06 0.000000e+00 1.000000e+00 4.736039e-01 -1.001465e+00
328 1 3.500000e-06 5.000000e-06 0.000000e+00 1.000000e+00 4.822819e-01 9.985352e-01
329 1 4.000000e-06 5.000000e-06 0.000000e+00 1.000000e+00 4.833269e-01 -1.001465e+00
330 1 4.500000e-06 5.000000e-06 0.000000e+00 1.000000e+00 4.312308e-01 9.985352e-01
331 1 5.000000e-06 5.000000e-06 0.000000e+00 1.000000e+00 4.534451e-01 -1.001465e+00
332 1 5.500000e-06 5.000000e-06 0.000000e+00 1.000000e+00 4.721135e-01 9.985352e-01
333 1 6.000000e-06 5.000000e-06 0.000000e+00 1.000000e+00 4.627471e-01 -1.001465e+00
334 1 6.500000e-06 5.000000e-06 0.000000e+00 1.000000e+00 4.600984e-01 9.985352e-01
335 1 7.000000e-06 5.000000e-06 0.000000e+00 1.000000e+00 4.585802e-01 -1.001465e+00
336 1 7.500000e-06 5.000000e-06 0.000000e+00 1.000000e+00 4.601588e-01 9.985352e-01
337 1 8.000000e-06 5.000000e-06 0.000000e+00 1.000000e+00 4.686645e-01 -1.001465e+00
338 1 8.500000e-06 5.000000e-06 0.000000e+00 1.000000e+00 4.722679e-01 9.985352e-01
339 1 9.000000e-06 5.000000e-06 0.000000e+00 1.000000e+00 4.585580e-01 -1.001465e+00
340 1 9.500000e-06 5.000000e-06 0.000000e+00 1.000000e+00 4.721598e-01 9.985352e-01
341 1 1.000000e-05 5.000000e-06 0.000000e+00 1.000000e+00 4.685537e-01 -1.001465e+00
342 1 1.050000e-05 5.000000e-06 0.000000e+00 1.000000e+00 4.702255e-01 9.985352e-01
343 1 1.100000e-05 5.000000e-06 0.000000e+00 1.000000e+00 4.738955e-01 -1.001465e+00
344 1 1.150000e-05 5.000000e-06 0.000000e+00 1.000000e+00 4.604556e-01 9.985352e-01
345 1 1.200000e-05 5.000000e-06 0.000000e+00 1.000000e+00 4.585478e-01 -1.001465e+00
346 1 1.250000e-05 5.000000e-06 0.000000e+00 1.000000e+00 4.686067e-01 9.985352e-01
347 1 1.300000e-05 5.000000e-06 0.000000e+00 1.000000e+00 4.773687e-01 -1.001465e+00
348 1 1.350000e-05 5.000000e-06 0.000000e+00 1.000000e+00 4.376713e-01 9.985352e-01
349 1 1.400000e-05 5.000000e-06 0.000000e+00 1.000000e+00 4.301940e-01 -1.001465e+00
350 1 1.450000e-05 5.000000e-06 0.000000e+00 1.000000e+00 4.457402e-01 9.985352e-01
351 1 1.500000e-05 5.000000e-06 0.000000e+00 1.000000e+00 4.506094e-01 -1.001465e+00
352 1 1.550000e-05 5.000000e-06 0.000000e+00 1.000000e+00 6.386476e-01 9.985352e-01
353 1 0.000000e+00 5.500000e-06 0.000000e+00 1.000000e+00 6.369676e-01 9.985352e-01
354 1 5.000000e-07 5.500000e-06 0.000000e+00 1.000000e+00 4.453486e-01 -1.001465e+00