ITEM: TIMESTEP
47
ITEM: NUMBER OF ATOMS
16384
ITEM: BOX BOUNDS pp pp pp
0.0 1.600000e-05
0.0 1.600000e-05
0.0 8.000000e-06
ITEM: ATOMS id type x y z crack plastic psi
1 1 0.000000e+00 0.000000e+00 0.000000e+00 1.000000e+00 9.999202e-01 -1.000000e+00
2 1 5.000000e-07 0.000000e+00 0.000000e+00 1.000000e+00 8.164622e-01 1.000000e+00
3 1 1.000000e-06 0.000000e+00 0.000000e+00 1.000000e+00 8.164531e-01 -1.000000e+00
4 1 1.500000e-06 0.000000e+00 0.000000e+00 1.000000e+00 8.164498e-01 1.000000e+00
5 1 2.000000e-06 0.000000e+00 0.000000e+00 1.000000e+00 8.164498e-01 -1.000000e+00
6 1 2.500000e-06 0.000000e+00 0.000000e+00 1.000000e+00 8.164481e-01 1.000000e+00
7 1 3.000000e-06 0.000000e+00 0.000000e+00 1.000000e+00 8.164513e-01 -1.000000e+00
8 1 3.500000e-06 0.000000e+00 0.000000e+00 1.000000e+00 8.164513e-01 1.000000e+00
9 1 4.000000e-06 0.000000e+00 0.000000e+00 1.000000e+00 8.164513e-01 -1.000000e+00
10 1 4.500000e-06 0.000000e+00 0.000000e+00 1.000000e+00 8.164463e-01 1.000000e+00
11 1 5.000000e-06 0.000000e+00 0.000000e+00 1.000000e+00 8.164494e-01 -1.000000e+00
12 1 5.500000e-06 0.000000e+00 0.000000e+00 1.000000e+00 8.164458e-01 1.000000e+00
13 1 6.000000e-06 0.000000e+00 0.000000e+00 1.000000e+00 8.164457e-01 -1.000000e+00
14 1 6.500000e-06 0.000000e+00 0.000000e+00 1.000000e+00 8.164513e-01 1.000000e+00
15 1 7.000000e-06 0.000000e+00 0.000000e+00 1.000000e+00 8.164565e-01 -1.000000e+00
16 1 7.500000e-06 0.000000e+00 0.000000e+00 1.000000e+00 8.164608e-01 1.000000e+00
17 1 8.000000e-06 0.000000e+00 0.000000e+00 1.000000e+00 8.164547e-01 -1.000000e+00
18 1 8.500000e-06 0.000000e+00 0.000000e+00 1.000000e+00 8.164519e-01 1.000000e+00
19 1 9.000000e-06 0.000000e+00 0.000000e+00 1.000000e+00 8.164567e-01 -1.000000e+00
20 1 9.500000e-06 0.000000e+00 0.000000e+00 1.000000e+00 8.164538e-01 1.000000e+00
21 1 1.000000e-05 0.000000e+00 0.000000e+00 1.000000e+00 8.164609e-01 -1.000000e+00
22 1 1.050000e-05 0.000000e+00 0.000000e+00 1.000000e+00 8.164583e-01 1.000000e+00
23 1 1.100000e-05 0.000000e+00 0.000000e+00 1.000000e+00 8.164467e-01 -1.000000e+00
24 1 1.150000e-05 0.000000e+00 0.000000e+00 1.000000e+00 8.164244e-01 1.000000e+00
25 1 1.200000e-05 0.000000e+00 0.000000e+00 1.000000e+00 8.164457e-01 -1.000000e+00
26 1 1.250000e-05 0.000000e+00 0.000000e+00 1.000000e+00 8.164562e-01 1.000000e+00
27 1 1.300000e-05 0.000000e+00 0.000000e+00 1.000000e+00 8.164582e-01 -1.000000e+00
28 1 1.350000e-05 0.000000e+00 0.000000e+00 1.000000e+00 8.164559e-01 1.000000e+00
29 1 1.400000e-05 0.000000e+00 0.000000e+00 1.000000e+00 8.164541e-01 -1.000000e+00
30 1 1.450000e-05 0.000000e+00 0.000000e+00 1.000000e+00 8.164474e-01 1.000000e+00
31 1 1.500000e-05 0.000000e+00 0.000000e+00 1.000000e+00 8.164572e-01 -1.000000e+00
32 1 1.550000e-05 0.000000e+00 0.000000e+00 1.000000e+00 9.999351e-01 1.000000e+00
33 1 0.000000e+00 5.000000e-07 0.000000e+00 1.000000e+00 8.164161e-01 1.000000e+00
34 1 5.000000e-07 5.000000e-07 0.000000e+00 1.000000e+00 5.773219e-01 -1.000000e+00
35 1 1.000000e-06 5.000000e-07 0.000000e+00 1.000000e+00 5.773107e-01 1.000000e+00
36 1 1.500000e-06 5.000000e-07 0.000000e+00 1.000000e+00 5.773125e-01 -1.000000e+00
37 1 2.000000e-06 5.000000e-07 0.000000e+00 1.000000e+00 5.773123e-01 1.000000e+00
38 1 2.500000e-06 5.000000e-07 0.000000e+00 1.000000e+00 5.773142e-01 -1.000000e+00
39 1 3.000000e-06 5.000000e-07 0.000000e+00 1.000000e+00 5.773101e-01 1.000000e+00
40 1 3.500000e-06 5.000000e-07 0.000000e+00 1.000000e+00 5.773147e-01 -1.000000e+00
41 1 4.000000e-06 5.000000e-07 0.000000e+00 1.000000e+00 5.773150e-01 1.000000e+00
42 1 4.500000e-06 5.000000e-07 0.000000e+00 1.000000e+00 5.773130e-01 -1.000000e+00
43 1 5.000000e-06 5.000000e-07 0.000000e+00 1.000000e+00 5.773086e-01 1.000000e+00
44 1 5.500000e-06 5.000000e-07 0.000000e+00 1.000000e+00 5.773008e-01 -1.000000e+00
45 1 6.000000e-06 5.000000e-07 0.000000e+00 1.000000e+00 5.773078e-01 1.000000e+00
46 1 6.500000e-06 5.000000e-07 0.000000e+00 1.000000e+00 5.773201e-01 -1.000000e+00
47 1 7.000000e-06 5.000000e-07 0.000000e+00 1.000000e+00 5.773219e-01 1.000000e+00
48 1 7.500000e-06 5.000000e-07 0.000000e+00 1.000000e+00 5.773400e-01 -1.000000e+00
49 1 8.000000e-06 5.000000e-07 0.000000e+00 1.000000e+00 5.773233e-01 1.000000e+00
50 1 8.500000e-06 5.000000e-07 0.000000e+00 1.000000e+00 5.773169e-01 -1.000000e+00
51 1 9.000000e-06 5.000000e-07 0.000000e+00 1.000000e+00 5.773134e-01 1.000000e+00
52 1 9.500000e-06 5.000000e-07 0.000000e+00 1.000000e+00 5.773289e-01 -1.000000e+00
53 1 1.000000e-05 5.000000e-07 0.000000e+00 1.000000e+00 5.773247e-01 1.000000e+00
54 1 1.050000e-05 5.000000e-07 0.000000e+00 1.000000e+00 5.773099e-01 -1.000000e+00
55 1 1.100000e-05 5.000000e-07 0.000000e+00 1.000000e+00 5.773291e-01 1.000000e+00
56 1 1.150000e-05 5.000000e-07 0.000000e+00 1.000000e+00 5.773279e-01 -1.000000e+00
57 1 1.200000e-05 5.000000e-07 0.000000e+00 1.000000e+00 5.773220e-01 1.000000e+00
58 1 1.250000e-05 5.000000e-07 0.000000e+00 1.000000e+00 5.773093e-01 -1.000000e+00
59 1 1.300000e-05 5.000000e-07 0.000000e+00 1.000000e+00 5.773172e-01 1.000000e+00
60 1 1.350000e-05 5.000000e-07 0.000000e+00 1.000000e+00 5.773144e-01 -1.000000e+00
61 1 1.400000e-05 5.000000e-07 0.000000e+00 1.000000e+00 5.773153e-01 1.000000e+00
62 1 1.450000e-05 5.000000e-07 0.000000e+00 1.000000e+00 5.773272e-01 -1.000000e+00
63 1 1.500000e-05 5.000000e-07 0.000000e+00 1.000000e+00 5.773295e-01 1.000000e+00
64 1 1.550000e-05 5.000000e-07 0.000000e+00 1.000000e+00 8.164390e-01 -1.000000e+00
65 1 0.000000e+00 1.000000e-06 0.000000e+00 1.000000e+00 8.164273e-01 -1.000000e+00
66 1 5.000000e-07 1.000000e-06 0.000000e+00 1.000000e+00 5.773284e-01 1.000000e+00
67 1 1.000000e-06 1.000000e-06 0.000000e+00 1.000000e+00 5.773124e-01 -1.000000e+00
68 1 1.500000e-06 1.000000e-06 0.000000e+00 1.000000e+00 5.773107e-01 1.000000e+00
69 1 2.000000e-06 1.000000e-06 0.000000e+00 1.000000e+00 5.773099e-01 -1.000000e+00
70 1 2.500000e-06 1.000000e-06 0.000000e+00 1.000000e+00 5.773101e-01 1.000000e+00
71 1 3.000000e-06 1.000000e-06 0.000000e+00 1.000000e+00 5.773063e-01 -1.000000e+00
72 1 3.500000e-06 1.000000e-06 0.000000e+00 1.000000e+00 5.773150e-01 1.000000e+00
73 1 4.000000e-06 1.000000e-06 0.000000e+00 1.000000e+00 5.773216e-01 -1.000000e+00
74 1 4.500000e-06 1.000000e-06 0.000000e+00 1.000000e+00 5.773285e-01 1.000000e+00
75 1 5.000000e-06 1.000000e-06 0.000000e+00 1.000000e+00 5.773267e-01 -1.000000e+00
76 1 5.500000e-06 1.000000e-06 0.000000e+00 1.000000e+00 5.773214e-01 1.000000e+00
77 1 6.000000e-06 1.000000e-06 0.000000e+00 1.000000e+00 5.773268e-01 -1.000000e+00
78 1 6.500000e-06 1.000000e-06 0.000000e+00 1.000000e+00 5.773107e-01 1.000000e+00
79 1 7.000000e-06 1.000000e-06 0.000000e+00 1.000000e+00 5.773068e-01 -1.000000e+00
80 1 7.500000e-06 1.000000e-06 0.000000e+00 1.000000e+00 5.773261e-01 1.000000e+00
81 1 8.000000e-06 1.000000e-06 0.000000e+00 1.000000e+00 5.773160e-01 -1.000000e+00
82 1 8.500000e-06 1.000000e-06 0.000000e+00 1.000000e+00 5.773166e-01 1.000000e+00
83 1 9.000000e-06 1.000000e-06 0.000000e+00 1.000000e+00 5.773288e-01 -1.000000e+00
84 1 9.500000e-06 1.000000e-06 0.000000e+00 1.000000e+00 5.773348e-01 1.000000e+00
85 1 1.000000e-05 1.000000e-06 0.000000e+00 1.000000e+00 5.773250e-01 -1.000000e+00
86 1 1.050000e-05 1.000000e-06 0.000000e+00 1.000000e+00 5.773165e-01 1.000000e+00
87 1 1.100000e-05 1.000000e-06 0.000000e+00 1.000000e+00 5.773291e-01 -1.000000e+00
88 1 1.150000e-05 1.000000e-06 0.000000e+00 1.000000e+00 5.773155e-01 1.000000e+00
89 1 1.200000e-05 1.000000e-06 0.000000e+00 1.000000e+00 5.773262e-01 -1.000000e+00
90 1 1.250000e-05 1.000000e-06 0.000000e+00 1.000000e+00 5.773198e-01 1.000000e+00
91 1 1.300000e-05 1.000000e-06 0.000000e+00 1.000000e+00 5.773185e-01 -1.000000e+00
92 1 1.350000e-05 1.000000e-06 0.000000e+00 1.000000e+00 5.773183e-01 1.000000e+00
93 1 1.400000e-05 1.000000e-06 0.000000e+00 1.000000e+00 5.773185e-01 -1.000000e+00
94 1 1.450000e-05 1.000000e-06 0.000000e+00 1.000000e+00 5.773220e-01 1.000000e+00
95 1 1.500000e-05 1.000000e-06 0.000000e+00 1.000000e+00 5.773292e-01 -1.000000e+00
96 1 1.550000e-05 1.000000e-06 0.000000e+00 1.000000e+00 8.164458e-01 1.000000e+00
97 1 0.000000e+00 1.500000e-06 0.000000e+00 1.000000e+00 8.164372e-01 1.000000e+00
98 1 5.000000e-07 1.500000e-06 0.000000e+00 1.000000e+00 5.773264e-01 -1.000000e+00
99 1 1.000000e-06 1.500000e-06 0.000000e+00 1.000000e+00 5.773160e-01 1.000000e+00
100 1 1.500000e-06 1.500000e-06 0.000000e+00 1.000000e+00 5.773215e-01 -1.000000e+00
101 1 2.000000e-06 1.500000e-06 0.000000e+00 1.000000e+00 5.773219e-01 1.000000e+00
102 1 2.500000e-06 1.500000e-06 0.000000e+00 1.000000e+00 5.773201e-01 -1.000000e+00
103 1 3.000000e-06 1.500000e-06 0.000000e+00 1.000000e+00 5.773182e-01 1.000000e+00
104 1 3.500000e-06 1.500000e-06 0.000000e+00 1.000000e+00 5.773182e-01 -1.000000e+00
105 1 4.000000e-06 1.500000e-06 0.000000e+00 1.000000e+00 5.773237e-01 1.000000e+00
106 1 4.500000e-06 1.500000e-06 0.000000e+00 1.000000e+00 5.773258e-01 -1.000000e+00
107 1 5.000000e-06 1.500000e-06 0.000000e+00 1.000000e+00 5.773257e-01 1.000000e+00
108 1 5.500000e-06 1.500000e-06 0.000000e+00 1.000000e+00 5.773245e-01 -1.000000e+00
109 1 6.000000e-06 1.500000e-06 0.000000e+00 1.000000e+00 5.773172e-01 1.000000e+00
110 1 6.500000e-06 1.500000e-06 0.000000e+00 1.000000e+00 5.773222e-01 -1.000000e+00
111 1 7.000000e-06 1.500000e-06 0.000000e+00 1.000000e+00 5.773228e-01 1.000000e+00
112 1 7.500000e-06 1.500000e-06 0.000000e+00 1.000000e+00 5.773206e-01 -1.000000e+00
113 1 8.000000e-06 1.500000e-06 0.000000e+00 1.000000e+00 5.773199e-01 1.000000e+00
114 1 8.500000e-06 1.500000e-06 0.000000e+00 1.000000e+00 5.773180e-01 -1.000000e+00
115 1 9.000000e-06 1.500000e-06 0.000000e+00 1.000000e+00 5.773261e-01 1.000000e+00
116 1 9.500000e-06 1.500000e-06 0.000000e+00 1.000000e+00 5.773264e-01 -1.000000e+00
117 1 1.000000e-05 1.500000e-06 0.000000e+00 1.000000e+00 5.773236e-01 1.000000e+00
118 1 1.050000e-05 1.500000e-06 0.000000e+00 1.000000e+00 5.773264e-01 -1.000000e+00
119 1 1.100000e-05 1.500000e-06 0.000000e+00 1.000000e+00 5.773276e-01 1.000000e+00
120 1 1.150000e-05 1.500000e-06 0.000000e+00 1.000000e+00 5.773246e-01 -1.000000e+00
121 1 1.200000e-05 1.500000e-06 0.000000e+00 1.000000e+00 5.773332e-01 1.000000e+00
122 1 1.250000e-05 1.500000e-06 0.000000e+00 1.000000e+00 5.773387e-01 -1.000000e+00
123 1 1.300000e-05 1.500000e-06 0.000000e+00 1.000000e+00 5.773351e-01 1.000000e+00
124 1 1.350000e-05 1.500000e-06 0.000000e+00 1.000000e+00 5.773316e-01 -1.000000e+00
125 1 1.400000e-05 1.500000e-06 0.000000e+00 1.000000e+00 5.773284e-01 1.000000e+00
126 1 1.450000e-05 1.500000e-06 0.000000e+00 1.000000e+00 5.773322e-01 -1.000000e+00
127 1 1.500000e-05 1.500000e-06 0.000000e+00 1.000000e+00 5.773242e-01 1.000000e+00
128 1 1.550000e-05 1.500000e-06 0.000000e+00 1.000000e+00 8.164494e-01 -1.000000e+00
129 1 0.000000e+00 2.000000e-06 0.000000e+00 1.000000e+00 8.164423e-01 -1.000000e+00
130 1 5.000000e-07 2.000000e-06 0.000000e+00 1.000000e+00 5.773195e-01 1.000000e+00
131 1 1.000000e-06 2.000000e-06 0.000000e+00 1.000000e+00 5.773229e-01 -1.000000e+00
132 1 1.500000e-06 2.000000e-06 0.000000e+00 1.000000e+00 5.773209e-01 1.000000e+00
133 1 2.000000e-06 2.000000e-06 0.000000e+00 1.000000e+00 5.773157e-01 -1.000000e+00
134 1 2.500000e-06 2.000000e-06 0.000000e+00 1.000000e+00 5.773191e-01 1.000000e+00
135 1 3.000000e-06 2.000000e-06 0.000000e+00 1.000000e+00 5.773223e-01 -1.000000e+00
136 1 3.500000e-06 2.000000e-06 0.000000e+00 1.000000e+00 5.773182e-01 1.000000e+00
137 1 4.000000e-06 2.000000e-06 0.000000e+00 1.000000e+00 5.773246e-01 -1.000000e+00
138 1 4.500000e-06 2.000000e-06 0.000000e+00 1.000000e+00 5.773244e-01 1.000000e+00
139 1 5.000000e-06 2.000000e-06 0.000000e+00 1.000000e+00 5.773270e-01 -1.000000e+00
140 1 5.500000e-06 2.000000e-06 0.000000e+00 1.000000e+00 5.773131e-01 1.000000e+00
141 1 6.000000e-06 2.000000e-06 0.000000e+00 1.000000e+00 5.773233e-01 -1.000000e+00
142 1 6.500000e-06 2.000000e-06 0.000000e+00 1.000000e+00 5.773152e-01 1.000000e+00
143 1 7.000000e-06 2.000000e-06 0.000000e+00 1.000000e+00 5.773155e-01 -1.000000e+00
144 1 7.500000e-06 2.000000e-06 0.000000e+00 1.000000e+00 5.773175e-01 1.000000e+00
145 1 8.000000e-06 2.000000e-06 0.000000e+00 1.000000e+00 5.773181e-01 -1.000000e+00
146 1 8.500000e-06 2.000000e-06 0.000000e+00 1.000000e+00 5.773217e-01 1.000000e+00
147 1 9.000000e-06 2.000000e-06 0.000000e+00 1.000000e+00 5.773198e-01 -1.000000e+00
148 1 9.500000e-06 2.000000e-06 0.000000e+00 1.000000e+00 5.773136e-01 1.000000e+00
149 1 1.000000e-05 2.000000e-06 0.000000e+00 1.000000e+00 5.773307e-01 -1.000000e+00
150 1 1.050000e-05 2.000000e-06 0.000000e+00 1.000000e+00 5.773195e-01 1.000000e+00
151 1 1.100000e-05 2.000000e-06 0.000000e+00 1.000000e+00 5.773195e-01 -1.000000e+00
152 1 1.150000e-05 2.000000e-06 0.000000e+00 1.000000e+00 5.773288e-01 1.000000e+00
153 1 1.200000e-05 2.000000e-06 0.000000e+00 1.000000e+00 5.773322e-01 -1.000000e+00
154 1 1.250000e-05 2.000000e-06 0.000000e+00 1.000000e+00 5.773308e-01 1.000000e+00
155 1 1.300000e-05 2.000000e-06 0.000000e+00 1.000000e+00 5.773189e-01 -1.000000e+00
156 1 1.350000e-05 2.000000e-06 0.000000e+00 1.000000e+00 5.773215e-01 1.000000e+00
157 1 1.400000e-05 2.000000e-06 0.000000e+00 1.000000e+00 5.773213e-01 -1.000000e+00
158 1 1.450000e-05 2.000000e-06 0.000000e+00 1.000000e+00 5.773191e-01 1.000000e+00
159 1 1.500000e-05 2.000000e-06 0.000000e+00 1.000000e+00 5.773189e-01 -1.000000e+00
160 1 1.550000e-05 2.000000e-06 0.000000e+00 1.000000e+00 8.164485e-01 1.000000e+00
161 1 0.000000e+00 2.500000e-06 0.000000e+00 1.000000e+00 8.164466e-01 1.000000e+00
162 1 5.000000e-07 2.500000e-06 0.000000e+00 1.000000e+00 5.773243e-01 -1.000000e+00
163 1 1.000000e-06 2.500000e-06 0.000000e+00 1.000000e+00 5.773238e-01 1.000000e+00
164 1 1.500000e-06 2.500000e-06 0.000000e+00 1.000000e+00 5.773240e-01 -1.000000e+00
165 1 2.000000e-06 2.500000e-06 0.000000e+00 1.000000e+00 5.773202e-01 1.000000e+00
166 1 2.500000e-06 2.500000e-06 0.000000e+00 1.000000e+00 5.773147e-01 -1.000000e+00
167 1 3.000000e-06 2.500000e-06 0.000000e+00 1.000000e+00 5.773195e-01 1.000000e+00
168 1 3.500000e-06 2.500000e-06 0.000000e+00 1.000000e+00 5.773186e-01 -1.000000e+00
169 1 4.000000e-06 2.500000e-06 0.000000e+00 1.000000e+00 5.773222e-01 1.000000e+00
170 1 4.500000e-06 2.500000e-06 0.000000e+00 1.000000e+00 5.773217e-01 -1.000000e+00
171 1 5.000000e-06 2.500000e-06 0.000000e+00 1.000000e+00 5.773233e-01 1.000000e+00
172 1 5.500000e-06 2.500000e-06 0.000000e+00 1.000000e+00 5.773254e-01 -1.000000e+00
173 1 6.000000e-06 2.500000e-06 0.000000e+00 1.000000e+00 5.773245e-01 1.000000e+00
174 1 6.500000e-06 2.500000e-06 0.000000e+00 1.000000e+00 5.773248e-01 -1.000000e+00
175 1 7.000000e-06 2.500000e-06 0.000000e+00 1.000000e+00 5.773224e-01 1.000000e+00
176 1 7.500000e-06 2.500000e-06 0.000000e+00 1.000000e+00 5.773260e-01 -1.000000e+00
177 1 8.000000e-06 2.500000e-06 0.000000e+00 1.000000e+00 5.773269e-01 1.000000e+00
178 1 8.500000e-06 2.500000e-06 0.000000e+00 1.000000e+00 5.773279e-01 -1.000000e+00
179 1 9.000000e-06 2.500000e-06 0.000000e+00 1.000000e+00 5.773240e-01 1.000000e+00
180 1 9.500000e-06 2.500000e-06 0.000000e+00 1.000000e+00 5.773284e-01 -1.000000e+00
181 1 1.000000e-05 2.500000e-06 0.000000e+00 1.000000e+00 5.773201e-01 1.000000e+00
182 1 1.050000e-05 2.500000e-06 0.000000e+00 1.000000e+00 5.773292e-01 -1.000000e+00
183 1 1.100000e-05 2.500000e-06 0.000000e+00 1.000000e+00 5.773272e-01 1.000000e+00
184 1 1.150000e-05 2.500000e-06 0.000000e+00 1.000000e+00 5.773278e-01 -1.000000e+00
185 1 1.200000e-05 2.500000e-06 0.000000e+00 1.000000e+00 5.773388e-01 1.000000e+00
186 1 1.250000e-05 2.500000e-06 0.000000e+00 1.000000e+00 5.773291e-01 -1.000000e+00
187 1 1.300000e-05 2.500000e-06 0.000000e+00 1.000000e+00 5.773337e-01 1.000000e+00
188 1 1.350000e-05 2.500000e-06 0.000000e+00 1.000000e+00 5.773293e-01 -1.000000e+00
189 1 1.400000e-05 2.500000e-06 0.000000e+00 1.000000e+00 5.773279e-01 1.000000e+00
190 1 1.450000e-05 2.500000e-06 0.000000e+00 1.000000e+00 5.773241e-01 -1.000000e+00
191 1 1.500000e-05 2.500000e-06 0.000000e+00 1.000000e+00 5.773264e-01 1.000000e+00
192 1 1.550000e-05 2.500000e-06 0.000000e+00 1.000000e+00 8.164460e-01 -1.000000e+00
193 1 0.000000e+00 3.000000e-06 0.000000e+00 1.000000e+00 8.164542e-01 -1.000000e+00
194 1 5.000000e-07 3.000000e-06 0.000000e+00 1.000000e+00 5.773187e-01 1.000000e+00
195 1 1.000000e-06 3.000000e-06 0.000000e+00 1.000000e+00 5.773206e-01 -1.000000e+00
196 1 1.500000e-06 3.000000e-06 0.000000e+00 1.000000e+00 5.773215e-01 1.000000e+00
197 1 2.000000e-06 3.000000e-06 0.000000e+00 1.000000e+00 5.773145e-01 -1.000000e+00
198 1 2.500000e-06 3.000000e-06 0.000000e+00 1.000000e+00 5.773145e-01 1.000000e+00
199 1 3.000000e-06 3.000000e-06 0.000000e+00 1.000000e+00 5.773192e-01 -1.000000e+00
200 1 3.500000e-06 3.000000e-06 0.000000e+00 1.000000e+00 5.773205e-01 1.000000e+00
201 1 4.000000e-06 3.000000e-06 0.000000e+00 1.000000e+00 5.773182e-01 -1.000000e+00
202 1 4.500000e-06 3.000000e-06 0.000000e+00 1.000000e+00 5.773222e-01 1.000000e+00
203 1 5.000000e-06 3.000000e-06 0.000000e+00 1.000000e+00 5.773290e-01 -1.000000e+00
204 1 5.500000e-06 3.000000e-06 0.000000e+00 1.000000e+00 5.773257e-01 1.000000e+00
205 1 6.000000e-06 3.000000e-06 0.000000e+00 1.000000e+00 5.773250e-01 -1.000000e+00
206 1 6.500000e-06 3.000000e-06 0.000000e+00 1.000000e+00 5.773269e-01 1.000000e+00
207 1 7.000000e-06 3.000000e-06 0.000000e+00 1.000000e+00 5.773306e-01 -1.000000e+00
208 1 7.500000e-06 3.000000e-06 0.000000e+00 1.000000e+00 5.773193e-01 1.000000e+00
209 1 8.000000e-06 3.000000e-06 0.000000e+00 1.000000e+00 5.773118e-01 -1.000000e+00
210 1 8.500000e-06 3.000000e-06 0.000000e+00 1.000000e+00 5.773135e-01 1.000000e+00
211 1 9.000000e-06 3.000000e-06 0.000000e+00 1.000000e+00 5.773134e-01 -1.000000e+00
212 1 9.500000e-06 3.000000e-06 0.000000e+00 1.000000e+00 5.773230e-01 1.000000e+00
213 1 1.000000e-05 3.000000e-06 0.000000e+00 1.000000e+00 5.773134e-01 -1.000000e+00
214 1 1.050000e-05 3.000000e-06 0.000000e+00 1.000000e+00 5.773204e-01 1.000000e+00
215 1 1.100000e-05 3.000000e-06 0.000000e+00 1.000000e+00 5.773340e-01 -1.000000e+00
216 1 1.150000e-05 3.000000e-06 0.000000e+00 1.000000e+00 5.773364e-01 1.000000e+00
217 1 1.200000e-05 3.000000e-06 0.000000e+00 1.000000e+00 5.773225e-01 -1.000000e+00
218 1 1.250000e-05 3.000000e-06 0.000000e+00 1.000000e+00 5.773252e-01 1.000000e+00
219 1 1.300000e-05 3.000000e-06 0.000000e+00 1.000000e+00 5.773288e-01 -1.000000e+00
220 1 1.350000e-05 3.000000e-06 0.000000e+00 1.000000e+00 5.773279e-01 1.000000e+00
221 1 1.400000e-05 3.000000e-06 0.000000e+00 1.000000e+00 5.773263e-01 -1.000000e+00
222 1 1.450000e-05 3.000000e-06 0.000000e+00 1.000000e+00 5.773279e-01 1.000000e+00
223 1 1.500000e-05 3.000000e-06 0.000000e+00 1.000000e+00 5.773271e-01 -1.000000e+00
224 1 1.550000e-05 3.000000e-06 0.000000e+00 1.000000e+00 8.164598e-01 1.000000e+00
225 1 0.000000e+00 3.500000e-06 0.000000e+00 1.000000e+00 8.164513e-01 1.000000e+00
226 1 5.000000e-07 3.500000e-06 0.000000e+00 1.000000e+00 5.773182e-01 -1.000000e+00
227 1 1.000000e-06 3.500000e-06 0.000000e+00 1.000000e+00 5.773182e-01 1.000000e+00
228 1 1.500000e-06 3.500000e-06 0.000000e+00 1.000000e+00 5.773186e-01 -1.000000e+00
229 1 2.000000e-06 3.500000e-06 0.000000e+00 1.000000e+00 5.773164e-01 1.000000e+00
230 1 2.500000e-06 3.500000e-06 0.000000e+00 1.000000e+00 5.773159e-01 -1.000000e+00
231 1 3.000000e-06 3.500000e-06 0.000000e+00 1.000000e+00 5.773168e-01 1.000000e+00
232 1 3.500000e-06 3.500000e-06 0.000000e+00 1.000000e+00 5.773170e-01 -1.000000e+00
233 1 4.000000e-06 3.500000e-06 0.000000e+00 1.000000e+00 5.773141e-01 1.000000e+00
234 1 4.500000e-06 3.500000e-06 0.000000e+00 1.000000e+00 5.773026e-01 -1.000000e+00
235 1 5.000000e-06 3.500000e-06 0.000000e+00 1.000000e+00 5.773131e-01 1.000000e+00
236 1 5.500000e-06 3.500000e-06 0.000000e+00 1.000000e+00 5.773245e-01 -1.000000e+00
237 1 6.000000e-06 3.500000e-06 0.000000e+00 1.000000e+00 5.773186e-01 1.000000e+00
238 1 6.500000e-06 3.500000e-06 0.000000e+00 1.000000e+00 5.773187e-01 -1.000000e+00
239 1 7.000000e-06 3.500000e-06 0.000000e+00 1.000000e+00 5.773186e-01 1.000000e+00
240 1 7.500000e-06 3.500000e-06 0.000000e+00 1.000000e+00 5.773135e-01 -1.000000e+00
241 1 8.000000e-06 3.500000e-06 0.000000e+00 1.000000e+00 5.773191e-01 1.000000e+00
242 1 8.500000e-06 3.500000e-06 0.000000e+00 1.000000e+00 5.773126e-01 -1.000000e+00
243 1 9.000000e-06 3.500000e-06 0.000000e+00 1.000000e+00 5.773219e-01 1.000000e+00
244 1 9.500000e-06 3.500000e-06 0.000000e+00 1.000000e+00 5.773143e-01 -1.000000e+00
245 1 1.000000e-05 3.500000e-06 0.000000e+00 1.000000e+00 5.773125e-01 1.000000e+00
246 1 1.050000e-05 3.500000e-06 0.000000e+00 1.000000e+00 5.773063e-01 -1.000000e+00
247 1 1.100000e-05 3.500000e-06 0.000000e+00 1.000000e+00 5.773172e-01 1.000000e+00
248 1 1.150000e-05 3.500000e-06 0.000000e+00 1.000000e+00 5.773253e-01 -1.000000e+00
249 1 1.200000e-05 3.500000e-06 0.000000e+00 1.000000e+00 5.773182e-01 1.000000e+00
250 1 1.250000e-05 3.500000e-06 0.000000e+00 1.000000e+00 5.773201e-01 -1.000000e+00
251 1 1.300000e-05 3.500000e-06 0.000000e+00 1.000000e+00 5.773199e-01 1.000000e+00
252 1 1.350000e-05 3.500000e-06 0.000000e+00 1.000000e+00 5.773175e-01 -1.000000e+00
253 1 1.400000e-05 3.500000e-06 0.000000e+00 1.000000e+00 5.773137e-01 1.000000e+00
254 1 1.450000e-05 3.500000e-06 0.000000e+00 1.000000e+00 5.773143e-01 -1.000000e+00
255 1 1.500000e-05 3.500000e-06 0.000000e+00 1.000000e+00 5.773132e-01 1.000000e+00
256 1 1.550000e-05 3.500000e-06 0.000000e+00 1.000000e+00 8.164509e-01 -1.000000e+00
257 1 0.000000e+00 4.000000e-06 0.000000e+00 1.000000e+00 8.164519e-01 -1.000000e+00
258 1 5.000000e-07 4.000000e-06 0.000000e+00 1.000000e+00 5.773187e-01 1.000000e+00
259 1 1.000000e-06 4.000000e-06 0.000000e+00 1.000000e+00 5.773186e-01 -1.000000e+00
260 1 1.500000e-06 4.000000e-06 0.000000e+00 1.000000e+00 5.773195e-01 1.000000e+00
261 1 2.000000e-06 4.000000e-06 0.000000e+00 1.000000e+00 5.773184e-01 -1.000000e+00
262 1 2.500000e-06 4.000000e-06 0.000000e+00 1.000000e+00 5.773191e-01 1.000000e+00
263 1 3.000000e-06 4.000000e-06 0.000000e+00 1.000000e+00 5.773238e-01 -1.000000e+00
264 1 3.500000e-06 4.000000e-06 0.000000e+00 1.000000e+00 5.773249e-01 1.000000e+00
265 1 4.000000e-06 4.000000e-06 0.000000e+00 1.000000e+00 5.773220e-01 -1.000000e+00
266 1 4.500000e-06 4.000000e-06 0.000000e+00 1.000000e+00 5.773299e-01 1.000000e+00
267 1 5.000000e-06 4.000000e-06 0.000000e+00 1.000000e+00 5.773273e-01 -1.000000e+00
268 1 5.500000e-06 4.000000e-06 0.000000e+00 1.000000e+00 5.773244e-01 1.000000e+00
269 1 6.000000e-06 4.000000e-06 0.000000e+00 1.000000e+00 5.773254e-01 -1.000000e+00
270 1 6.500000e-06 4.000000e-06 0.000000e+00 1.000000e+00 5.773182e-01 1.000000e+00
271 1 7.000000e-06 4.000000e-06 0.000000e+00 1.000000e+00 5.773228e-01 -1.000000e+00
272 1 7.500000e-06 4.000000e-06 0.000000e+00 1.000000e+00 5.773237e-01 1.000000e+00
273 1 8.000000e-06 4.000000e-06 0.000000e+00 1.000000e+00 5.773224e-01 -1.000000e+00
274 1 8.500000e-06 4.000000e-06 0.000000e+00 1.000000e+00 5.773190e-01 1.000000e+00
275 1 9.000000e-06 4.000000e-06 0.000000e+00 1.000000e+00 5.773205e-01 -1.000000e+00
276 1 9.500000e-06 4.000000e-06 0.000000e+00 1.000000e+00 5.773182e-01 1.000000e+00
277 1 1.000000e-05 4.000000e-06 0.000000e+00 1.000000e+00 5.773182e-01 -1.000000e+00
278 1 1.050000e-05 4.000000e-06 0.000000e+00 1.000000e+00 5.773177e-01 1.000000e+00
279 1 1.100000e-05 4.000000e-06 0.000000e+00 1.000000e+00 5.773169e-01 -1.000000e+00
280 1 1.150000e-05 4.000000e-06 0.000000e+00 1.000000e+00 5.773190e-01 1.000000e+00
281 1 1.200000e-05 4.000000e-06 0.000000e+00 1.000000e+00 5.773224e-01 -1.000000e+00
282 1 1.250000e-05 4.000000e-06 0.000000e+00 1.000000e+00 5.773219e-01 1.000000e+00
283 1 1.300000e-05 4.000000e-06 0.000000e+00 1.000000e+00 5.773209e-01 -1.000000e+00
284 1 1.350000e-05 4.000000e-06 0.000000e+00 1.000000e+00 5.773187e-01 1.000000e+00
285 1 1.400000e-05 4.000000e-06 0.000000e+00 1.000000e+00 5.773202e-01 -1.000000e+00
286 1 1.450000e-05 4.000000e-06 0.000000e+00 1.000000e+00 5.773196e-01 1.000000e+00
287 1 1.500000e-05 4.000000e-06 0.000000e+00 1.000000e+00 5.773192e-01 -1.000000e+00
288 1 1.550000e-05 4.000000e-06 0.000000e+00 1.000000e+00 8.164526e-01 1.000000e+00
289 1 0.000000e+00 4.500000e-06 0.000000e+00 1.000000e+00 8.164496e-01 1.000000e+00
290 1 5.000000e-07 4.500000e-06 0.000000e+00 1.000000e+00 5.773187e-01 -1.000000e+00
291 1 1.000000e-06 4.500000e-06 0.000000e+00 1.000000e+00 5.773187e-01 1.000000e+00
292 1 1.500000e-06 4.500000e-06 0.000000e+00 1.000000e+00 5.773187e-01 -1.000000e+00
293 1 2.000000e-06 4.500000e-06 0.000000e+00 1.000000e+00 5.773197e-01 1.000000e+00
294 1 2.500000e-06 4.500000e-06 0.000000e+00 1.000000e+00 5.773174e-01 -1.000000e+00
295 1 3.000000e-06 4.500000e-06 0.000000e+00 1.000000e+00 5.773271e-01 1.000000e+00
296 1 3.500000e-06 4.500000e-06 0.000000e+00 1.000000e+00 5.773228e-01 -1.000000e+00
297 1 4.000000e-06 4.500000e-06 0.000000e+00 1.000000e+00 5.773221e-01 1.000000e+00
298 1 4.500000e-06 4.500000e-06 0.000000e+00 1.000000e+00 5.773136e-01 -1.000000e+00
299 1 5.000000e-06 4.500000e-06 0.000000e+00 1.000000e+00 5.773222e-01 1.000000e+00
300 1 5.500000e-06 4.500000e-06 0.000000e+00 1.000000e+00 5.773208e-01 -1.000000e+00
301 1 6.000000e-06 4.500000e-06 0.000000e+00 1.000000e+00 5.773176e-01 1.000000e+00
302 1 6.500000e-06 4.500000e-06 0.000000e+00 1.000000e+00 5.773191e-01 -1.000000e+00
303 1 7.000000e-06 4.500000e-06 0.000000e+00 1.000000e+00 5.773186e-01 1.000000e+00
304 1 7.500000e-06 4.500000e-06 0.000000e+00 1.000000e+00 5.773199e-01 -1.000000e+00
305 1 8.000000e-06 4.500000e-06 0.000000e+00 1.000000e+00 5.773218e-01 1.000000e+00
306 1 8.500000e-06 4.500000e-06 0.000000e+00 1.000000e+00 5.773213e-01 -1.000000e+00
307 1 9.000000e-06 4.500000e-06 0.000000e+00 1.000000e+00 5.773182e-01 1.000000e+00
308 1 9.500000e-06 4.500000e-06 0.000000e+00 1.000000e+00 5.773201e-01 -1.000000e+00
309 1 1.000000e-05 4.500000e-06 0.000000e+00 1.000000e+00 5.773169e-01 1.000000e+00
310 1 1.050000e-05 4.500000e-06 0.000000e+00 1.000000e+00 5.773199e-01 -1.000000e+00
311 1 1.100000e-05 4.500000e-06 0.000000e+00 1.000000e+00 5.773166e-01 1.000000e+00
312 1 1.150000e-05 4.500000e-06 0.000000e+00 1.000000e+00 5.773176e-01 -1.000000e+00
313 1 1.200000e-05 4.500000e-06 0.000000e+00 1.000000e+00 5.773187e-01 1.000000e+00
314 1 1.250000e-05 4.500000e-06 0.000000e+00 1.000000e+00 5.773213e-01 -1.000000e+00
315 1 1.300000e-05 4.500000e-06 0.000000e+00 1.000000e+00 5.773202e-01 1.000000e+00
316 1 1.350000e-05 4.500000e-06 0.000000e+00 1.000000e+00 5.773177e-01 -1.000000e+00
317 1 1.400000e-05 4.500000e-06 0.000000e+00 1.000000e+00 5.773142e-01 1.000000e+00
318 1 1.450000e-05 4.500000e-06 0.000000e+00 1.000000e+00 5.773172e-01 -1.000000e+00
319 1 1.500000e-05 4.500000e-06 0.000000e+00 1.000000e+00 5.773216e-01 1.000000e+00
320 1 1.550000e-05 4.500000e-06 0.000000e+00 1.000000e+00 8.164548e-01 -1.000000e+00
321 1 0.000000e+00 5.000000e-06 0.000000e+00 1.000000e+00 8.164519e-01 -1.000000e+00
322 1 5.000000e-07 5.000000e-06 0.000000e+00 1.000000e+00 5.773186e-01 1.000000e+00
323 1 1.000000e-06 5.000000e-06 0.000000e+00 1.000000e+00 5.773186e-01 -1.000000e+00
324 1 1.500000e-06 5.000000e-06 0.000000e+00 1.000000e+00 5.773177e-01 1.000000e+00
325 1 2.000000e-06 5.000000e-06 0.000000e+00 1.000000e+00 5.773179e-01 -1.000000e+00
326 1 2.500000e-06 5.000000e-06 0.000000e+00 1.000000e+00 5.773182e-01 1.000000e+00
327 1 3.000000e-06 5.000000e-06 0.000000e+00 1.000000e+00 5.773223e-01 -1.000000e+00
328 1 3.500000e-06 5.000000e-06 0.000000e+00 1.000000e+00 5.773246e-01 1.000000e+00
329 1 4.000000e-06 5.000000e-06 0.000000e+00 1.000000e+00 5.773249e-01 -1.000000e+00
330 1 4.500000e-06 5.000000e-06 0.000000e+00 1.000000e+00 5.773109e-01 1.000000e+00
331 1 5.000000e-06 5.000000e-06 0.000000e+00 1.000000e+00 5.773168e-01 -1.000000e+00
332 1 5.500000e-06 5.000000e-06 0.000000e+00 1.000000e+00 5.773219e-01 1.000000e+00
333 1 6.000000e-06 5.000000e-06 0.000000e+00 1.000000e+00 5.773194e-01 -1.000000e+00
334 1 6.500000e-06 5.000000e-06 0.000000e+00 1.000000e+00 5.773186e-01 1.000000e+00
335 1 7.000000e-06 5.000000e-06 0.000000e+00 1.000000e+00 5.773182e-01 -1.000000e+00
336 1 7.500000e-06 5.000000e-06 0.000000e+00 1.000000e+00 5.773187e-01 1.000000e+00
337 1 8.000000e-06 5.000000e-06 0.000000e+00 1.000000e+00 5.773210e-01 -1.000000e+00
338 1 8.500000e-06 5.000000e-06 0.000000e+00 1.000000e+00 5.773219e-01 1.000000e+00
339 1 9.000000e-06 5.000000e-06 0.000000e+00 1.000000e+00 5.773182e-01 -1.000000e+00
340 1 9.500000e-06 5.000000e-06 0.000000e+00 1.000000e+00 5.773219e-01 1.000000e+00
341 1 1.000000e-05 5.000000e-06 0.000000e+00 1.000000e+00 5.773209e-01 -1.000000e+00
342 1 1.050000e-05 5.000000e-06 0.000000e+00 1.000000e+00 5.773214e-01 1.000000e+00
343 1 1.100000e-05 5.000000e-06 0.000000e+00 1.000000e+00 5.773224e-01 -1.000000e+00
344 1 1.150000e-05 5.000000e-06 0.000000e+00 1.000000e+00 5.773187e-01 1.000000e+00
345 1 1.200000e-05 5.000000e-06 0.000000e+00 1.000000e+00 5.773182e-01 -1.000000e+00
346 1 1.250000e-05 5.000000e-06 0.000000e+00 1.000000e+00 5.773209e-01 1.000000e+00
347 1 1.300000e-05 5.000000e-06 0.000000e+00 1.000000e+00 5.773233e-01 -1.000000e+00
348 1 1.350000e-05 5.000000e-06 0.000000e+00 1.000000e+00 5.773126e-01 1.000000e+00
349 1 1.400000e-05 5.000000e-06 0.000000e+00 1.000000e+00 5.773106e-01 -1.000000e+00
350 1 1.450000e-05 5.000000e-06 0.000000e+00 1.000000e+00 5.773148e-01 1.000000e+00
351 1 1.500000e-05 5.000000e-06 0.000000e+00 1.000000e+00 5.773161e-01 -1.000000e+00
352 1 1.550000e-05 5.000000e-06 0.000000e+00 1.000000e+00 8.164486e-01 1.000000e+00
353 1 0.000000e+00 5.500000e-06 0.000000e+00 1.000000e+00 8.164482e-01 1.000000e+00
354 1 5.000000e-07 5.500000e-06 0.000000e+00 1.000000e+00 5.773147e-01 -1.000000e+00